                               Psi4 1.2a1.dev429

  ==> Input File <==

--------------------------------------------------------------------------
# density-fitted hartree fock energies and gradients with 6-31g
molecule h20 {
0 1
O 0.0000000000 0.0000000000 0.0000000000
H 0.0000000000 0.0000000000 1.2000000000
H 0.0000000000 0.3500000000 -0.6062177826
}

set basis 6-31g

gradient('hf')
--------------------------------------------------------------------------

    Molecular point group: cs
  Charge       = 0
  Multiplicity = 1
  Basis Set: 6-31G
    Blend: 6-31G
  Basis Set: (6-31G AUX)
    Blend: CC-PVDZ-JKFIT

    Orbital Energies (a.u.)
    -----------------------

    Doubly Occupied:

       1Ap   -20.509090     2Ap    -1.374501     3Ap    -0.755710
       4Ap    -0.481488     1App   -0.476510

  @DF-RHF Final Energy:   -75.78746163149907

   => Energetics <=

    Nuclear Repulsion Energy =              9.8632126659133661
    One-Electron Energy =                -124.1067491131205145
    Two-Electron Energy =                  38.4560748157080781
    Total Energy =                        -75.7874616314990703
    Molecular point group: cs

    Geometry (in Angstrom), charge = 0, multiplicity = 1:

       Center              X                  Y                   Z               Mass
    ------------   -----------------  -----------------  -----------------  -----------------
           O          0.019585102823     0.033226530806     0.000000000000    15.994914619560
           H          0.019585102823    -1.166773469194     0.000000000000     1.007825032070
           H         -0.330414897177     0.639444313406     0.000000000000     1.007825032070

  Basis Set: 6-31G
    Blend: 6-31G
  Basis Set: (6-31G AUX)
    Blend: CC-PVDZ-JKFIT

  -Total Gradient:
     Atom            X                  Y                   Z
    ------   -----------------  -----------------  -----------------
       1       -0.426745312923     0.766533212334     0.000000000000
       2        0.025155887339    -0.157208681054     0.000000000000
       3        0.401589425584    -0.609324531280     0.000000000000

*** Psi4 exiting successfully. Buy a developer a beer!
