                               Psi4 1.2a1.dev429

  ==> Input File <==

--------------------------------------------------------------------------
# density-fitted hartree fock energies and gradients with 6-31g
molecule h20 {
0 1
O 0.0000000000 0.0000000000 0.0000000000
H 0.0000000000 0.0000000000 1.0000000000
H 0.0000000000 1.3000000000 0.0000000000
}

set basis 6-31g

gradient('hf')
--------------------------------------------------------------------------

    Molecular point group: cs
  Charge       = 0
  Multiplicity = 1
  Basis Set: 6-31G
    Blend: 6-31G
  Basis Set: (6-31G AUX)
    Blend: CC-PVDZ-JKFIT

    Orbital Energies (a.u.)
    -----------------------

    Doubly Occupied:

       1Ap   -20.605925     2Ap    -1.303966     3Ap    -0.620904
       4Ap    -0.539163     1App   -0.505650

  @DF-RHF Final Energy:   -75.91634469976677

   => Energetics <=

    Nuclear Repulsion Energy =              7.8125378369783398
    One-Electron Energy =                -120.3065497793373595
    Two-Electron Energy =                  36.5776672425922698
    Total Energy =                        -75.9163446997667535
    Molecular point group: cs

    Geometry (in Angstrom), charge = 0, multiplicity = 1:

       Center              X                  Y                   Z               Mass
    ------------   -----------------  -----------------  -----------------  -----------------
           O          0.072744667627     0.055957436636     0.000000000000    15.994914619560
           H          0.072744667627    -0.944042563364     0.000000000000     1.007825032070
           H         -1.227255332373     0.055957436636     0.000000000000     1.007825032070

  Basis Set: 6-31G
    Blend: 6-31G
  Basis Set: (6-31G AUX)
    Blend: CC-PVDZ-JKFIT

  -Total Gradient:
     Atom            X                  Y                   Z
    ------   -----------------  -----------------  -----------------
       1        0.144268445299     0.050141322192     0.000000000000
       2       -0.021536882829    -0.033574488464     0.000000000000
       3       -0.122731562471    -0.016566833729     0.000000000000

*** Psi4 exiting successfully. Buy a developer a beer!
