                               Psi4 1.2a1.dev429

  ==> Input File <==

--------------------------------------------------------------------------
# density-fitted hartree fock energies and gradients with 6-31g
molecule h2o {
0 1
O 0.0000000000 0.0000000000 0.0000000000
H 0.0000000000 0.0000000000 1.3000000000
H 0.0000000000 0.5000000000 -0.8660254038
}

set basis 6-31g

gradient('mp2')
--------------------------------------------------------------------------

    Molecular point group: cs
  Charge       = 0
  Multiplicity = 1
  Basis Set: 6-31G
    Blend: 6-31G
  Basis Set: (6-31G AUX)
    Blend: CC-PVDZ-JKFIT

    Orbital Energies (a.u.)
    -----------------------

    Doubly Occupied:

       1Ap   -20.534382     2Ap    -1.241742     3Ap    -0.643189
       1App   -0.455317     4Ap    -0.453359

  @DF-RHF Final Energy:   -75.87978633371642

   => Energetics <=

    Nuclear Repulsion Energy =              7.7279407422521587
    One-Electron Energy =                -120.5594760458288306
    Two-Electron Energy =                  36.9517489698602475
    Total Energy =                        -75.8797863337164245
  Basis Set: (6-31G AUX)
    Blend: CC-PVDZ-RI
    Molecular point group: cs

    Geometry (in Angstrom), charge = 0, multiplicity = 1:

       Center              X                  Y                   Z               Mass
    ------------   -----------------  -----------------  -----------------  -----------------
           O          0.027978718318     0.024284105969     0.000000000000    15.994914619560
           H          0.027978718318    -1.275715894031     0.000000000000     1.007825032070
           H         -0.472021281682     0.890309509769     0.000000000000     1.007825032070

  Basis Set: 6-31G
    Blend: 6-31G
  Basis Set: (6-31G AUX)
    Blend: CC-PVDZ-JKFIT
  Basis Set: (6-31G AUX)
    Blend: CC-PVDZ-JKFIT
	 Reference Energy          =     -75.8797863337164245 [Eh]
	 Singles Energy            =      -0.0000000000000000 [Eh]
	 Same-Spin Energy          =      -0.0333286112277615 [Eh]
	 Opposite-Spin Energy      =      -0.1074514184173057 [Eh]
	 Correlation Energy        =      -0.1407800296450673 [Eh]
	 Total Energy              =     -76.0205663633614961 [Eh]

	 ================> DF-SCS-MP2 Energies <==================
	-----------------------------------------------------------
	 SCS Same-Spin Scale       =       0.3333333333333333 [-]
	 SCS Opposite-Spin Scale   =       1.2000000000000000 [-]
	 SCS Same-Spin Energy      =      -0.0111095370759205 [Eh]
	 SCS Opposite-Spin Energy  =      -0.1289417021007668 [Eh]
	 SCS Correlation Energy    =      -0.1400512391766874 [Eh]
	 SCS Total Energy          =     -76.0198375728931097 [Eh]
	-----------------------------------------------------------

  -Total Gradient:
     Atom            X                  Y                   Z
    ------   -----------------  -----------------  -----------------
       1       -0.057256231321     0.077889275887    -0.000000000000
       2        0.034155835808    -0.126683390816     0.000000000000
       3        0.023100395513     0.048794114929     0.000000000000

*** Psi4 exiting successfully. Buy a developer a beer!
