                               Psi4 1.2a1.dev429

  ==> Input File <==

--------------------------------------------------------------------------
# density-fitted hartree fock energies and gradients with 6-31g
molecule h20 {
0 1
O 0.0000000000 0.0000000000 0.0000000000
H 0.0000000000 0.0000000000 0.7000000000
H 0.0000000000 0.8426488874 -0.7070663707
}

set basis 6-31g

gradient('hf')
--------------------------------------------------------------------------

    Molecular point group: cs
  Charge       = 0
  Multiplicity = 1
  Basis Set: 6-31G
    Blend: 6-31G
  Basis Set: (6-31G AUX)
    Blend: CC-PVDZ-JKFIT

    Orbital Energies (a.u.)
    -----------------------

    Doubly Occupied:

       1Ap   -20.527188     2Ap    -1.407308     3Ap    -0.778553
       4Ap    -0.519290     1App   -0.495433

  @DF-RHF Final Energy:   -75.83253698690085

   => Energetics <=

    Nuclear Repulsion Energy =             10.2189525041847187
    One-Electron Energy =                -124.6474326975423708
    Two-Electron Energy =                  38.5959432064568091
    Total Energy =                        -75.8325369869008483
    Molecular point group: cs

    Geometry (in Angstrom), charge = 0, multiplicity = 1:

       Center              X                  Y                   Z               Mass
    ------------   -----------------  -----------------  -----------------  -----------------
           O          0.047152471723    -0.000395415991     0.000000000000    15.994914619560
           H          0.047152471723    -0.700395415991     0.000000000000     1.007825032070
           H         -0.795496415677     0.706670954709     0.000000000000     1.007825032070

  Basis Set: 6-31G
    Blend: 6-31G
  Basis Set: (6-31G AUX)
    Blend: CC-PVDZ-JKFIT

  -Total Gradient:
     Atom            X                  Y                   Z
    ------   -----------------  -----------------  -----------------
       1        0.050746785242    -0.825778977264     0.000000000000
       2        0.030555107561     0.732176042808     0.000000000000
       3       -0.081301892804     0.093602934456     0.000000000000

*** Psi4 exiting successfully. Buy a developer a beer!
