                               Psi4 1.2a1.dev429

  ==> Input File <==

--------------------------------------------------------------------------
# density-fitted hartree fock energies and gradients with 6-31g
molecule h2o {
0 1
O 0.0000000000 0.0000000000 0.0000000000
H 0.0000000000 0.0000000000 1.4000000000
H 0.0000000000 0.4788282007 -1.3155696691
}

set basis 6-31g

gradient('mp2')
--------------------------------------------------------------------------

    Molecular point group: c2v
  Charge       = 0
  Multiplicity = 1
  Basis Set: 6-31G
    Blend: 6-31G
  Basis Set: (6-31G AUX)
    Blend: CC-PVDZ-JKFIT

    Orbital Energies (a.u.)
    -----------------------

    Doubly Occupied:

       1A1   -20.545803     2A1    -1.163514     1B2    -0.527042
       1B1    -0.435393     3A1    -0.420499

  @DF-RHF Final Energy:   -75.75268046747388

   => Energetics <=

    Nuclear Repulsion Energy =              6.2396468909980936
    One-Electron Energy =                -117.8001520236368549
    Two-Electron Energy =                  35.8078246651648868
    Total Energy =                        -75.7526804674738798
  Basis Set: (6-31G AUX)
    Blend: CC-PVDZ-RI
    Molecular point group: c2v

    Geometry (in Angstrom), charge = 0, multiplicity = 1:

       Center              X                  Y                   Z               Mass
    ------------   -----------------  -----------------  -----------------  -----------------
           O         -0.000000000000     0.000000000000    -0.027207339319    15.994914619560
           H          0.000000000000    -1.378730854221     0.215900109436     1.007825032070
           H         -0.000000000000     1.378730854221     0.215900109436     1.007825032070

  Basis Set: 6-31G
    Blend: 6-31G
  Basis Set: (6-31G AUX)
    Blend: CC-PVDZ-JKFIT
  Basis Set: (6-31G AUX)
    Blend: CC-PVDZ-JKFIT
	 Reference Energy          =     -75.7526804674738798 [Eh]
	 Singles Energy            =      -0.0000000000000000 [Eh]
	 Same-Spin Energy          =      -0.0361475431698979 [Eh]
	 Opposite-Spin Energy      =      -0.1209135811518845 [Eh]
	 Correlation Energy        =      -0.1570611243217823 [Eh]
	 Total Energy              =     -75.9097415917956653 [Eh]

	 ================> DF-SCS-MP2 Energies <==================
	-----------------------------------------------------------
	 SCS Same-Spin Scale       =       0.3333333333333333 [-]
	 SCS Opposite-Spin Scale   =       1.2000000000000000 [-]
	 SCS Same-Spin Energy      =      -0.0120491810566326 [Eh]
	 SCS Opposite-Spin Energy  =      -0.1450962973822614 [Eh]
	 SCS Correlation Energy    =      -0.1571454784388940 [Eh]
	 SCS Total Energy          =     -75.9098259459127718 [Eh]
	-----------------------------------------------------------

  -Total Gradient:
     Atom            X                  Y                   Z
    ------   -----------------  -----------------  -----------------
       1       -0.000000000000    -0.000000000009     0.048398635638
       2        0.000000000000    -0.112505785524    -0.024199317818
       3       -0.000000000000     0.112505785533    -0.024199317819

*** Psi4 exiting successfully. Buy a developer a beer!
