                               Psi4 1.2a1.dev429

  ==> Input File <==

--------------------------------------------------------------------------
# density-fitted hartree fock energies and gradients with 6-31g
molecule h2o {
0 1
O 0.0000000000 0.0000000000 0.0000000000
H 0.0000000000 0.0000000000 0.9000000000
H 0.0000000000 1.0000000000 0.0000000000
}

set basis 6-31g

gradient('mp2')
--------------------------------------------------------------------------

    Molecular point group: cs
  Charge       = 0
  Multiplicity = 1
  Basis Set: 6-31G
    Blend: 6-31G
  Basis Set: (6-31G AUX)
    Blend: CC-PVDZ-JKFIT

    Orbital Energies (a.u.)
    -----------------------

    Doubly Occupied:

       1Ap   -20.568428     2Ap    -1.380642     3Ap    -0.686487
       4Ap    -0.589321     1App   -0.508653

  @DF-RHF Final Energy:   -75.96606929743371

   => Energetics <=

    Nuclear Repulsion Energy =              9.3305493998812512
    One-Electron Energy =                -123.1261756543929380
    Two-Electron Energy =                  37.8295569570779762
    Total Energy =                        -75.9660692974337053
  Basis Set: (6-31G AUX)
    Blend: CC-PVDZ-RI
    Molecular point group: cs

    Geometry (in Angstrom), charge = 0, multiplicity = 1:

       Center              X                  Y                   Z               Mass
    ------------   -----------------  -----------------  -----------------  -----------------
           O          0.055957436636     0.050361692973     0.000000000000    15.994914619560
           H          0.055957436636    -0.849638307027     0.000000000000     1.007825032070
           H         -0.944042563364     0.050361692973     0.000000000000     1.007825032070

  Basis Set: 6-31G
    Blend: 6-31G
  Basis Set: (6-31G AUX)
    Blend: CC-PVDZ-JKFIT
  Basis Set: (6-31G AUX)
    Blend: CC-PVDZ-JKFIT
	 Reference Energy          =     -75.9660692974337053 [Eh]
	 Singles Energy            =      -0.0000000000000000 [Eh]
	 Same-Spin Energy          =      -0.0300210874333171 [Eh]
	 Opposite-Spin Energy      =      -0.0993012440969391 [Eh]
	 Correlation Energy        =      -0.1293223315302562 [Eh]
	 Total Energy              =     -76.0953916289639665 [Eh]

	 ================> DF-SCS-MP2 Energies <==================
	-----------------------------------------------------------
	 SCS Same-Spin Scale       =       0.3333333333333333 [-]
	 SCS Opposite-Spin Scale   =       1.2000000000000000 [-]
	 SCS Same-Spin Energy      =      -0.0100070291444390 [Eh]
	 SCS Opposite-Spin Energy  =      -0.1191614929163269 [Eh]
	 SCS Correlation Energy    =      -0.1291685220607660 [Eh]
	 SCS Total Energy          =     -76.0952378194944714 [Eh]
	-----------------------------------------------------------

  -Total Gradient:
     Atom            X                  Y                   Z
    ------   -----------------  -----------------  -----------------
       1        0.046751490632    -0.071961682849    -0.000000000000
       2       -0.041417044898     0.109237023348     0.000000000000
       3       -0.005334445734    -0.037275340500     0.000000000000

*** Psi4 exiting successfully. Buy a developer a beer!
