                               Psi4 1.3.1 release

  ==> Input File <==

--------------------------------------------------------------------------
# density fitted hartree fock
molecule h2o {
0 1
H 0.0000000000 0.0000000000 1.0250000000
H 0.0000000000 0.9375000000 0.0000000000
O 0.0000000000 0.0000000000 0.0000000000
}

set basis 6-31g
energy('hf')

--------------------------------------------------------------------------

    Molecular point group: cs

    Geometry (in Angstrom), charge = 0, multiplicity = 1:

       Center              X                  Y                   Z               Mass
    ------------   -----------------  -----------------  -----------------  -----------------
         H            0.052460096854    -0.967643627440     0.000000000000     1.007825032230
         H           -0.885039903146     0.057356372560     0.000000000000     1.007825032230
         O            0.052460096854     0.057356372560     0.000000000000    15.994914619570

  Charge       = 0
  Multiplicity = 1
  Basis Set: 6-31G
    Blend: 6-31G
  Basis Set: (6-31G AUX)
    Blend: CC-PVDZ-JKFIT

    Orbital Energies [Eh]
    ---------------------

    Doubly Occupied:

       1Ap   -20.575121     2Ap    -1.362357     3Ap    -0.671186
       4Ap    -0.584534     1App   -0.507348

  @DF-RHF Final Energy:   -75.96811591736675

   => Energetics <=

    Nuclear Repulsion Energy =              9.0267654830216237
    One-Electron Energy =                -122.5886837714570277
    Two-Electron Energy =                  37.5938023710686622
    Total Energy =                        -75.9681159173667453

  Dipole Moment: [D]
     X:    -2.0255      Y:    -2.0171      Z:     0.0000     Total:     2.8585

*** Psi4 exiting successfully. Buy a developer a beer!
