                               Psi4 1.2a1.dev429

  ==> Input File <==

--------------------------------------------------------------------------
# density-fitted hartree fock energies and gradients with 6-31g
molecule h2o {
0 1
O 0.0000000000 0.0000000000 0.0000000000
H 0.0000000000 0.0000000000 1.4000000000
H 0.0000000000 0.6500000000 -1.1258330249
}

set basis 6-31g

gradient('mp2')
--------------------------------------------------------------------------

    Molecular point group: cs
  Charge       = 0
  Multiplicity = 1
  Basis Set: 6-31G
    Blend: 6-31G
  Basis Set: (6-31G AUX)
    Blend: CC-PVDZ-JKFIT

    Orbital Energies (a.u.)
    -----------------------

    Doubly Occupied:

       1Ap   -20.562757     2Ap    -1.186682     3Ap    -0.552481
       1App   -0.451200     4Ap    -0.435411

  @DF-RHF Final Energy:   -75.79175142968427

   => Energetics <=

    Nuclear Repulsion Energy =              6.4832402945238599
    One-Electron Energy =                -118.1729210926384894
    Two-Electron Energy =                  35.8979293684303684
    Total Energy =                        -75.7917514296842683
  Basis Set: (6-31G AUX)
    Blend: CC-PVDZ-RI
    Molecular point group: cs

    Geometry (in Angstrom), charge = 0, multiplicity = 1:

       Center              X                  Y                   Z               Mass
    ------------   -----------------  -----------------  -----------------  -----------------
           O          0.036372333814     0.015341681137     0.000000000000    15.994914619560
           H          0.036372333814    -1.384658318863     0.000000000000     1.007825032070
           H         -0.613627666186     1.141174706037     0.000000000000     1.007825032070

  Basis Set: 6-31G
    Blend: 6-31G
  Basis Set: (6-31G AUX)
    Blend: CC-PVDZ-JKFIT
  Basis Set: (6-31G AUX)
    Blend: CC-PVDZ-JKFIT
	 Reference Energy          =     -75.7917514296842683 [Eh]
	 Singles Energy            =      -0.0000000000000000 [Eh]
	 Same-Spin Energy          =      -0.0361441996945335 [Eh]
	 Opposite-Spin Energy      =      -0.1213805151386892 [Eh]
	 Correlation Energy        =      -0.1575247148332226 [Eh]
	 Total Energy              =     -75.9492761445174978 [Eh]

	 ================> DF-SCS-MP2 Energies <==================
	-----------------------------------------------------------
	 SCS Same-Spin Scale       =       0.3333333333333333 [-]
	 SCS Opposite-Spin Scale   =       1.2000000000000000 [-]
	 SCS Same-Spin Energy      =      -0.0120480665648445 [Eh]
	 SCS Opposite-Spin Energy  =      -0.1456566181664270 [Eh]
	 SCS Correlation Energy    =      -0.1577046847312715 [Eh]
	 SCS Total Energy          =     -75.9494561144155398 [Eh]
	-----------------------------------------------------------

  -Total Gradient:
     Atom            X                  Y                   Z
    ------   -----------------  -----------------  -----------------
       1       -0.024158098817    -0.007931714035    -0.000000000000
       2        0.039986135893    -0.105607234198     0.000000000000
       3       -0.015828037076     0.113538948233     0.000000000000

*** Psi4 exiting successfully. Buy a developer a beer!
