                               Psi4 1.3.1 release

  ==> Input File <==

--------------------------------------------------------------------------
# density fitted MP2
molecule h2o {
0 1
H 0.0000000000 0.0000000000 0.9375000000
H 0.0000000000 0.8500000000 0.0000000000
O 0.0000000000 0.0000000000 0.0000000000
}

set basis 6-31g
energy('mp2')

--------------------------------------------------------------------------

    Molecular point group: cs

    Geometry (in Angstrom), charge = 0, multiplicity = 1:

       Center              X                  Y                   Z               Mass
    ------------   -----------------  -----------------  -----------------  -----------------
         H            0.047563821147    -0.885039903146     0.000000000000     1.007825032230
         H           -0.802436178853     0.052460096854     0.000000000000     1.007825032230
         O            0.047563821147     0.052460096854     0.000000000000    15.994914619570

  Charge       = 0
  Multiplicity = 1
  Basis Set: 6-31G
    Blend: 6-31G
  Basis Set: (6-31G AUX)
    Blend: CC-PVDZ-JKFIT

    Orbital Energies [Eh]
    ---------------------

    Doubly Occupied:

       1Ap   -20.556396     2Ap    -1.415772     3Ap    -0.715029
       4Ap    -0.598411     1App   -0.511485

  @DF-RHF Final Energy:   -75.95423425363957

   => Energetics <=

    Nuclear Repulsion Energy =              9.9143045187895567
    One-Electron Energy =                -124.1428917413098532
    Two-Electron Energy =                  38.2743529688807342
    Total Energy =                        -75.9542342536395694

  Dipole Moment: [D]
     X:    -1.9888      Y:    -2.0005      Z:     0.0000     Total:     2.8209

  Basis Set: (6-31G AUX)
    Blend: CC-PVDZ-RI
	 Reference Energy          =     -75.9542342536395694 [Eh]
	 Singles Energy            =      -0.0000000000000000 [Eh]
	 Same-Spin Energy          =      -0.0287257496502996 [Eh]
	 Opposite-Spin Energy      =      -0.0951598746783224 [Eh]
	 Correlation Energy        =      -0.1238856243286219 [Eh]
	 Total Energy              =     -76.0781198779681915 [Eh]

	 ================> DF-SCS-MP2 Energies <==================
	-----------------------------------------------------------
	 SCS Same-Spin Scale       =       0.3333333333333333 [-]
	 SCS Opposite-Spin Scale   =       1.2000000000000000 [-]
	 SCS Same-Spin Energy      =      -0.0095752498834332 [Eh]
	 SCS Opposite-Spin Energy  =      -0.1141918496139869 [Eh]
	 SCS Correlation Energy    =      -0.1237670994974200 [Eh]
	 SCS Total Energy          =     -76.0780013531369832 [Eh]
	-----------------------------------------------------------

*** Psi4 exiting successfully. Buy a developer a beer!
