                               Psi4 1.2a1.dev429

  ==> Input File <==

--------------------------------------------------------------------------
# density-fitted hartree fock energies and gradients with 6-31g
molecule h2o {
0 1
O 0.0000000000 0.0000000000 0.0000000000
H 0.0000000000 0.0000000000 0.8000000000
H 0.0000000000 0.0000000000 -1.1000000000
}

set basis 6-31g

gradient('mp2')
--------------------------------------------------------------------------

    Molecular point group: c2v
  Charge       = 0
  Multiplicity = 1
  Basis Set: 6-31G
    Blend: 6-31G
  Basis Set: (6-31G AUX)
    Blend: CC-PVDZ-JKFIT

    Orbital Energies (a.u.)
    -----------------------

    Doubly Occupied:

       1A1   -20.498340     2A1    -1.317465     3A1    -0.766696
       1B1    -0.465663     1B2    -0.465663

  @DF-RHF Final Energy:   -75.88876564671278

   => Energetics <=

    Nuclear Repulsion Energy =              9.4188479232287072
    One-Electron Energy =                -123.5875744878406124
    Two-Electron Energy =                  38.2799609178991176
    Total Energy =                        -75.8887656467127840
  Basis Set: (6-31G AUX)
    Blend: CC-PVDZ-RI
    Molecular point group: c2v

    Geometry (in Angstrom), charge = 0, multiplicity = 1:

       Center              X                  Y                   Z               Mass
    ------------   -----------------  -----------------  -----------------  -----------------
           O          0.000000000000     0.000000000000     0.016787230991    15.994914619560
           H          0.000000000000     0.000000000000     0.816787230991     1.007825032070
           H          0.000000000000     0.000000000000    -1.083212769009     1.007825032070

  Basis Set: 6-31G
    Blend: 6-31G
  Basis Set: (6-31G AUX)
    Blend: CC-PVDZ-JKFIT
  Basis Set: (6-31G AUX)
    Blend: CC-PVDZ-JKFIT
	 Reference Energy          =     -75.8887656467127840 [Eh]
	 Singles Energy            =      -0.0000000000000000 [Eh]
	 Same-Spin Energy          =      -0.0300546594670075 [Eh]
	 Opposite-Spin Energy      =      -0.0943935453023508 [Eh]
	 Correlation Energy        =      -0.1244482047693583 [Eh]
	 Total Energy              =     -76.0132138514821492 [Eh]

	 ================> DF-SCS-MP2 Energies <==================
	-----------------------------------------------------------
	 SCS Same-Spin Scale       =       0.3333333333333333 [-]
	 SCS Opposite-Spin Scale   =       1.2000000000000000 [-]
	 SCS Same-Spin Energy      =      -0.0100182198223358 [Eh]
	 SCS Opposite-Spin Energy  =      -0.1132722543628209 [Eh]
	 SCS Correlation Energy    =      -0.1232904741851568 [Eh]
	 SCS Total Energy          =     -76.0120561208979382 [Eh]
	-----------------------------------------------------------

  -Total Gradient:
     Atom            X                  Y                   Z
    ------   -----------------  -----------------  -----------------
       1        0.000000000000    -0.000000000000     0.415079876932
       2       -0.000000000000     0.000000000000    -0.291024523475
       3        0.000000000000     0.000000000000    -0.124055353458

*** Psi4 exiting successfully. Buy a developer a beer!
