                               Psi4 1.2a1.dev429

  ==> Input File <==

--------------------------------------------------------------------------
# density-fitted hartree fock energies and gradients with 6-31g
molecule h2o {
0 1
O 0.0000000000 0.0000000000 0.0000000000
H 0.0000000000 0.0000000000 1.1000000000
H 0.0000000000 0.6500000000 -1.1258330249
}

set basis 6-31g

gradient('mp2')
--------------------------------------------------------------------------

    Molecular point group: cs
  Charge       = 0
  Multiplicity = 1
  Basis Set: 6-31G
    Blend: 6-31G
  Basis Set: (6-31G AUX)
    Blend: CC-PVDZ-JKFIT

    Orbital Energies (a.u.)
    -----------------------

    Doubly Occupied:

       1Ap   -20.542264     2Ap    -1.219375     3Ap    -0.616713
       1App   -0.452579     4Ap    -0.448651

  @DF-RHF Final Energy:   -75.86438835251518

   => Energetics <=

    Nuclear Repulsion Energy =              7.3332483284189500
    One-Electron Energy =                -119.8361095867744694
    Two-Electron Energy =                  36.6384729058403451
    Total Energy =                        -75.8643883525151779
  Basis Set: (6-31G AUX)
    Blend: CC-PVDZ-RI
    Molecular point group: cs

    Geometry (in Angstrom), charge = 0, multiplicity = 1:

       Center              X                  Y                   Z               Mass
    ------------   -----------------  -----------------  -----------------  -----------------
           O          0.036372333814    -0.001445549854     0.000000000000    15.994914619560
           H          0.036372333814    -1.101445549854     0.000000000000     1.007825032070
           H         -0.613627666186     1.124387475046     0.000000000000     1.007825032070

  Basis Set: 6-31G
    Blend: 6-31G
  Basis Set: (6-31G AUX)
    Blend: CC-PVDZ-JKFIT
  Basis Set: (6-31G AUX)
    Blend: CC-PVDZ-JKFIT
	 Reference Energy          =     -75.8643883525151779 [Eh]
	 Singles Energy            =      -0.0000000000000000 [Eh]
	 Same-Spin Energy          =      -0.0340949100435921 [Eh]
	 Opposite-Spin Energy      =      -0.1104982528149246 [Eh]
	 Correlation Energy        =      -0.1445931628585167 [Eh]
	 Total Energy              =     -76.0089815153736907 [Eh]

	 ================> DF-SCS-MP2 Energies <==================
	-----------------------------------------------------------
	 SCS Same-Spin Scale       =       0.3333333333333333 [-]
	 SCS Opposite-Spin Scale   =       1.2000000000000000 [-]
	 SCS Same-Spin Energy      =      -0.0113649700145307 [Eh]
	 SCS Opposite-Spin Energy  =      -0.1325979033779095 [Eh]
	 SCS Correlation Energy    =      -0.1439628733924402 [Eh]
	 SCS Total Energy          =     -76.0083512259076173 [Eh]
	-----------------------------------------------------------

  -Total Gradient:
     Atom            X                  Y                   Z
    ------   -----------------  -----------------  -----------------
       1       -0.014343401326    -0.038537697200    -0.000000000000
       2        0.043255865686    -0.084742393936     0.000000000000
       3       -0.028912464361     0.123280091136     0.000000000000

*** Psi4 exiting successfully. Buy a developer a beer!
