                               Psi4 1.2a1.dev429

  ==> Input File <==

--------------------------------------------------------------------------
# density-fitted hartree fock energies and gradients with 6-31g
molecule h2o {
0 1
O 0.0000000000 0.0000000000 0.0000000000
H 0.0000000000 0.0000000000 1.2000000000
H 0.0000000000 0.5000000000 -0.8660254038
}

set basis 6-31g

gradient('mp2')
--------------------------------------------------------------------------

    Molecular point group: cs
  Charge       = 0
  Multiplicity = 1
  Basis Set: 6-31G
    Blend: 6-31G
  Basis Set: (6-31G AUX)
    Blend: CC-PVDZ-JKFIT

    Orbital Energies (a.u.)
    -----------------------

    Doubly Occupied:

       1Ap   -20.531419     2Ap    -1.252073     3Ap    -0.668442
       4Ap    -0.461404     1App   -0.458990

  @DF-RHF Final Energy:   -75.90747028850417

   => Energetics <=

    Nuclear Repulsion Energy =              8.0102121334579763
    One-Electron Energy =                -121.0907088960146041
    Two-Electron Energy =                  37.1730264740524703
    Total Energy =                        -75.9074702885041575
  Basis Set: (6-31G AUX)
    Blend: CC-PVDZ-RI
    Molecular point group: cs

    Geometry (in Angstrom), charge = 0, multiplicity = 1:

       Center              X                  Y                   Z               Mass
    ------------   -----------------  -----------------  -----------------  -----------------
           O          0.027978718318     0.018688362305     0.000000000000    15.994914619560
           H          0.027978718318    -1.181311637695     0.000000000000     1.007825032070
           H         -0.472021281682     0.884713766105     0.000000000000     1.007825032070

  Basis Set: 6-31G
    Blend: 6-31G
  Basis Set: (6-31G AUX)
    Blend: CC-PVDZ-JKFIT
  Basis Set: (6-31G AUX)
    Blend: CC-PVDZ-JKFIT
	 Reference Energy          =     -75.9074702885041717 [Eh]
	 Singles Energy            =      -0.0000000000000000 [Eh]
	 Same-Spin Energy          =      -0.0326782316241501 [Eh]
	 Opposite-Spin Energy      =      -0.1042280743727105 [Eh]
	 Correlation Energy        =      -0.1369063059968606 [Eh]
	 Total Energy              =     -76.0443765945010313 [Eh]

	 ================> DF-SCS-MP2 Energies <==================
	-----------------------------------------------------------
	 SCS Same-Spin Scale       =       0.3333333333333333 [-]
	 SCS Opposite-Spin Scale   =       1.2000000000000000 [-]
	 SCS Same-Spin Energy      =      -0.0108927438747167 [Eh]
	 SCS Opposite-Spin Energy  =      -0.1250736892472526 [Eh]
	 SCS Correlation Energy    =      -0.1359664331219693 [Eh]
	 SCS Total Energy          =     -76.0434367216261364 [Eh]
	-----------------------------------------------------------

  -Total Gradient:
     Atom            X                  Y                   Z
    ------   -----------------  -----------------  -----------------
       1       -0.050857505561     0.071482199785    -0.000000000000
       2        0.033810332055    -0.123100427749     0.000000000000
       3        0.017047173506     0.051618227964     0.000000000000

*** Psi4 exiting successfully. Buy a developer a beer!
