                               Psi4 1.3.1 release

  ==> Input File <==

--------------------------------------------------------------------------
# density fitted hartree fock
molecule h2o {
0 1
H 0.0000000000 0.0000000000 1.0250000000
H 0.0000000000 0.8661370617 -0.3587657178
O 0.0000000000 0.0000000000 0.0000000000
}

set basis 6-31g
energy('hf')

--------------------------------------------------------------------------

    Molecular point group: cs

    Geometry (in Angstrom), charge = 0, multiplicity = 1:

       Center              X                  Y                   Z               Mass
    ------------   -----------------  -----------------  -----------------  -----------------
         H            0.048466809755    -0.987719237364     0.000000000000     1.007825032230
         H           -0.817670251945     0.396046480436     0.000000000000     1.007825032230
         O            0.048466809755     0.037280762636     0.000000000000    15.994914619570

  Charge       = 0
  Multiplicity = 1
  Basis Set: 6-31G
    Blend: 6-31G
  Basis Set: (6-31G AUX)
    Blend: CC-PVDZ-JKFIT

    Orbital Energies [Eh]
    ---------------------

    Doubly Occupied:

       1Ap   -20.558450     2Ap    -1.337210     3Ap    -0.709589
       4Ap    -0.541411     1App   -0.495963

  @DF-RHF Final Energy:   -75.97996517798090

   => Energetics <=

    Nuclear Repulsion Energy =              8.9699639192907341
    One-Electron Energy =                -122.6146029049888142
    Two-Electron Energy =                  37.6646738077171790
    Total Energy =                        -75.9799651779809011

  Dipole Moment: [D]
     X:    -2.0411      Y:    -1.4345      Z:     0.0000     Total:     2.4947

*** Psi4 exiting successfully. Buy a developer a beer!
