                               Psi4 1.3.1 release

  ==> Input File <==

--------------------------------------------------------------------------
# density fitted hartree fock
molecule h2o {
0 1
H 0.0000000000 0.0000000000 1.2000000000
H 0.0000000000 0.8661370617 -0.3587657178
O 0.0000000000 0.0000000000 0.0000000000
}

set basis 6-31g
energy('hf')

--------------------------------------------------------------------------

    Molecular point group: cs

    Geometry (in Angstrom), charge = 0, multiplicity = 1:

       Center              X                  Y                   Z               Mass
    ------------   -----------------  -----------------  -----------------  -----------------
         H            0.048466809755    -1.152926685951     0.000000000000     1.007825032230
         H           -0.817670251945     0.405839031849     0.000000000000     1.007825032230
         O            0.048466809755     0.047073314049     0.000000000000    15.994914619570

  Charge       = 0
  Multiplicity = 1
  Basis Set: 6-31G
    Blend: 6-31G
  Basis Set: (6-31G AUX)
    Blend: CC-PVDZ-JKFIT

    Orbital Energies [Eh]
    ---------------------

    Doubly Occupied:

       1Ap   -20.572568     2Ap    -1.311054     3Ap    -0.668122
       4Ap    -0.524537     1App   -0.492997

  @DF-RHF Final Energy:   -75.94538548135640

   => Energetics <=

    Nuclear Repulsion Energy =              8.3402440609015525
    One-Electron Energy =                -121.4326894252420885
    Two-Electron Energy =                  37.1470598829841521
    Total Energy =                        -75.9453854813563822

  Dipole Moment: [D]
     X:    -2.0120      Y:    -1.4974      Z:     0.0000     Total:     2.5081

*** Psi4 exiting successfully. Buy a developer a beer!
