                               Psi4 1.3.1 release

  ==> Input File <==

--------------------------------------------------------------------------
# density fitted MP2
molecule h2o {
0 1
H 0.0000000000 0.0000000000 1.0250000000
H 0.0000000000 1.0250000000 0.0000000000
O 0.0000000000 0.0000000000 0.0000000000
}

set basis 6-31g
energy('mp2')

--------------------------------------------------------------------------

    Molecular point group: c2v

    Geometry (in Angstrom), charge = 0, multiplicity = 1:

       Center              X                  Y                   Z               Mass
    ------------   -----------------  -----------------  -----------------  -----------------
         H            0.000000000000    -0.724784450716     0.643670290753     1.007825032230
         H           -0.000000000000     0.724784450716     0.643670290753     1.007825032230
         O            0.000000000000     0.000000000000    -0.081114159963    15.994914619570

  Charge       = 0
  Multiplicity = 1
  Basis Set: 6-31G
    Blend: 6-31G
  Basis Set: (6-31G AUX)
    Blend: CC-PVDZ-JKFIT

    Orbital Energies [Eh]
    ---------------------

    Doubly Occupied:

       1A1   -20.584466     2A1    -1.338409     1B2    -0.649839
       3A1    -0.578548     1B1    -0.505833

  @DF-RHF Final Energy:   -75.96586834049154

   => Energetics <=

    Nuclear Repulsion Energy =              8.6253855266674542
    One-Electron Energy =                -121.8683174903472803
    Two-Electron Energy =                  37.2770636231882833
    Total Energy =                        -75.9658683404915394

  Dipole Moment: [D]
     X:     0.0000      Y:     0.0000      Z:     2.8714     Total:     2.8714

  Basis Set: (6-31G AUX)
    Blend: CC-PVDZ-RI
	 Reference Energy          =     -75.9658683404915394 [Eh]
	 Singles Energy            =      -0.0000000000000000 [Eh]
	 Same-Spin Energy          =      -0.0317686817074657 [Eh]
	 Opposite-Spin Energy      =      -0.1050073762270402 [Eh]
	 Correlation Energy        =      -0.1367760579345059 [Eh]
	 Total Energy              =     -76.1026443984260510 [Eh]

	 ================> DF-SCS-MP2 Energies <==================
	-----------------------------------------------------------
	 SCS Same-Spin Scale       =       0.3333333333333333 [-]
	 SCS Opposite-Spin Scale   =       1.2000000000000000 [-]
	 SCS Same-Spin Energy      =      -0.0105895605691552 [Eh]
	 SCS Opposite-Spin Energy  =      -0.1260088514724482 [Eh]
	 SCS Correlation Energy    =      -0.1365984120416034 [Eh]
	 SCS Total Energy          =     -76.1024667525331466 [Eh]
	-----------------------------------------------------------

*** Psi4 exiting successfully. Buy a developer a beer!
