                               Psi4 1.2a1.dev429

  ==> Input File <==

--------------------------------------------------------------------------
# density-fitted hartree fock energies and gradients with 6-31g
molecule h20 {
0 1
O 0.0000000000 0.0000000000 0.0000000000
H 0.0000000000 0.0000000000 1.1000000000
H 0.0000000000 1.1817693036 -0.2083778132
}

set basis 6-31g

gradient('hf')
--------------------------------------------------------------------------

    Molecular point group: cs
  Charge       = 0
  Multiplicity = 1
  Basis Set: 6-31G
    Blend: 6-31G
  Basis Set: (6-31G AUX)
    Blend: CC-PVDZ-JKFIT

    Orbital Energies (a.u.)
    -----------------------

    Doubly Occupied:

       1Ap   -20.600775     2Ap    -1.282555     3Ap    -0.613543
       4Ap    -0.538063     1App   -0.498689

  @DF-RHF Final Energy:   -75.93123504732729

   => Energetics <=

    Nuclear Repulsion Energy =              7.6765541521382739
    One-Electron Energy =                -120.1483278612114844
    Two-Electron Energy =                  36.5405386617459271
    Total Energy =                        -75.9312350473272772
    Molecular point group: cs

    Geometry (in Angstrom), charge = 0, multiplicity = 1:

       Center              X                  Y                   Z               Mass
    ------------   -----------------  -----------------  -----------------  -----------------
           O          0.066128780925     0.049892892021     0.000000000000    15.994914619560
           H          0.066128780925    -1.050107107979     0.000000000000     1.007825032070
           H         -1.115640522675     0.258270705221     0.000000000000     1.007825032070

  Basis Set: 6-31G
    Blend: 6-31G
  Basis Set: (6-31G AUX)
    Blend: CC-PVDZ-JKFIT

  -Total Gradient:
     Atom            X                  Y                   Z
    ------   -----------------  -----------------  -----------------
       1        0.123662168005     0.077840832322     0.000000000000
       2       -0.005004940590    -0.094104672440     0.000000000000
       3       -0.118657227416     0.016263840118     0.000000000000

*** Psi4 exiting successfully. Buy a developer a beer!
