                               Psi4 1.2a1.dev429

  ==> Input File <==

--------------------------------------------------------------------------
# density-fitted MP2 energies and gradients with 6-31g

molecule h20 {
-1 1
C 0.0000000000 0.0000000000 0.0000000000
X 0.0000000000 0.0000000000 1.0000000000
H 0.0000000000 1.1118479532 -0.1960487926
H 0.9628885726 -0.5559239766 -0.1960487926
H -0.9628885726 -0.5559239766 -0.1960487926
}

set reference rhf
set basis 6-31g

gradient('mp2')
--------------------------------------------------------------------------

    Molecular point group: cs
  Charge       = -1
  Multiplicity = 1
  Basis Set: 6-31G
    Blend: 6-31G
  Basis Set: (6-31G AUX)
    Blend: CC-PVDZ-JKFIT

    Orbital Energies (a.u.)
    -----------------------

    Doubly Occupied:

       1Ap   -10.863585     2Ap    -0.543857     3Ap    -0.212284
       1App   -0.212284     4Ap     0.044338

  @DF-RHF Final Energy:   -39.43841351072773

   => Energetics <=

    Nuclear Repulsion Energy =              9.2611966422135925
    One-Electron Energy =                 -73.8238755713909995
    Two-Electron Energy =                  25.1242654184496814
    Total Energy =                        -39.4384135107277274
  Basis Set: (6-31G AUX)
    Blend: CC-PVDZ-RI
    Molecular point group: cs

    Geometry (in Angstrom), charge = -1, multiplicity = 1:

       Center              X                  Y                   Z               Mass
    ------------   -----------------  -----------------  -----------------  -----------------
           C         -0.000000000000     0.039454829077     0.000000000000    12.000000000000
           H         -0.555923976593    -0.156593963523     0.962888572613     1.007825032070
           H         -0.555923976593    -0.156593963523    -0.962888572613     1.007825032070
           H          1.111847953185    -0.156593963523     0.000000000000     1.007825032070

  Basis Set: 6-31G
    Blend: 6-31G
  Basis Set: (6-31G AUX)
    Blend: CC-PVDZ-JKFIT
  Basis Set: (6-31G AUX)
    Blend: CC-PVDZ-JKFIT
	 Reference Energy          =     -39.4384135107277274 [Eh]
	 Singles Energy            =      -0.0000000000000000 [Eh]
	 Same-Spin Energy          =      -0.0177997492571996 [Eh]
	 Opposite-Spin Energy      =      -0.0800510686112482 [Eh]
	 Correlation Energy        =      -0.0978508178684478 [Eh]
	 Total Energy              =     -39.5362643285961752 [Eh]

	 ================> DF-SCS-MP2 Energies <==================
	-----------------------------------------------------------
	 SCS Same-Spin Scale       =       0.3333333333333333 [-]
	 SCS Opposite-Spin Scale   =       1.2000000000000000 [-]
	 SCS Same-Spin Energy      =      -0.0059332497523999 [Eh]
	 SCS Opposite-Spin Energy  =      -0.0960612823334978 [Eh]
	 SCS Correlation Energy    =      -0.1019945320858977 [Eh]
	 SCS Total Energy          =     -39.5404080428136240 [Eh]
	-----------------------------------------------------------

  -Total Gradient:
     Atom            X                  Y                   Z
    ------   -----------------  -----------------  -----------------
       1        0.000000000039    -0.012262049545    -0.000000000007
       2       -0.009819373418     0.004087349846     0.017007653642
       3       -0.009819373414     0.004087349848    -0.017007653636
       4        0.019638746793     0.004087349851     0.000000000000

*** Psi4 exiting successfully. Buy a developer a beer!
