                               Psi4 1.2a1.dev429

  ==> Input File <==

--------------------------------------------------------------------------
# density-fitted hartree fock energies and gradients with 6-31g
molecule o2 {
0 3
O 0.0000000000 0.0000000000 0.0000000000
O 0.0000000000 0.0000000000 0.9838383838
}

set basis 6-31g
set reference rohf

gradient('scf')
--------------------------------------------------------------------------

    Molecular point group: d2h
  Charge       = 0
  Multiplicity = 3
  Basis Set: 6-31G
    Blend: 6-31G
  Basis Set: (6-31G AUX)
    Blend: CC-PVDZ-JKFIT

    Orbital Energies (a.u.)
    -----------------------

    Doubly Occupied:

       1Ag   -20.711007     1B1u  -20.708119     2Ag    -1.958550
       2B1u   -1.012478     1B3u   -0.836365     1B2u   -0.836365
       3Ag    -0.787193

    Singly Occupied:

       1B2g   -0.112217     1B3g   -0.112217

  @DF-ROHF Final Energy:  -149.40200643633764

   => Energetics <=

    Nuclear Repulsion Energy =             34.4236837141380931
    One-Electron Energy =                -273.0650706131700076
    Two-Electron Energy =                  89.2393804626942853
    Total Energy =                       -149.4020064363376150
    Molecular point group: d2h

    Geometry (in Angstrom), charge = 0, multiplicity = 3:

       Center              X                  Y                   Z               Mass
    ------------   -----------------  -----------------  -----------------  -----------------
           O          0.000000000000     0.000000000000    -0.491919191900    15.994914619560
           O          0.000000000000     0.000000000000     0.491919191900    15.994914619560

  Basis Set: 6-31G
    Blend: 6-31G
  Basis Set: (6-31G AUX)
    Blend: CC-PVDZ-JKFIT

  -Total Gradient:
     Atom            X                  Y                   Z
    ------   -----------------  -----------------  -----------------
       1        0.000000000000     0.000000000000     0.843275045404
       2        0.000000000000    -0.000000000000    -0.843275045404

*** Psi4 exiting successfully. Buy a developer a beer!
