                               Psi4 1.2a1.dev429

  ==> Input File <==

--------------------------------------------------------------------------
# density-fitted hartree fock energies and gradients with 6-31g
molecule h20 {
0 1
O 0.0000000000 0.0000000000 0.0000000000
O 0.0000000000 0.0000000000 0.9838383838
}

set basis 6-31g

gradient('hf')
--------------------------------------------------------------------------

    Molecular point group: d2h
  Charge       = 0
  Multiplicity = 1
  Basis Set: 6-31G
    Blend: 6-31G
  Basis Set: (6-31G AUX)
    Blend: CC-PVDZ-JKFIT

    Orbital Energies (a.u.)
    -----------------------

    Doubly Occupied:

       1Ag   -20.722498     1B1u  -20.719591     2Ag    -1.965752
       2B1u   -1.017312     1B3u   -0.892914     3Ag    -0.792420
       1B2u   -0.790599     1B2g   -0.375624

  @DF-RHF Final Energy:  -149.33266289547473

   => Energetics <=

    Nuclear Repulsion Energy =             34.4236837141380931
    One-Electron Energy =                -272.9592706398715904
    Two-Electron Energy =                  89.2029240302587993
    Total Energy =                       -149.3326628954746980
    Molecular point group: d2h

    Geometry (in Angstrom), charge = 0, multiplicity = 1:

       Center              X                  Y                   Z               Mass
    ------------   -----------------  -----------------  -----------------  -----------------
           O          0.000000000000     0.000000000000    -0.491919191900    15.994914619560
           O          0.000000000000     0.000000000000     0.491919191900    15.994914619560

  Basis Set: 6-31G
    Blend: 6-31G
  Basis Set: (6-31G AUX)
    Blend: CC-PVDZ-JKFIT

  -Total Gradient:
     Atom            X                  Y                   Z
    ------   -----------------  -----------------  -----------------
       1        0.000000000000     0.000000000000     0.847135051100
       2        0.000000000000    -0.000000000000    -0.847135051100

*** Psi4 exiting successfully. Buy a developer a beer!
