                               Psi4 1.2a1.dev429

  ==> Input File <==

--------------------------------------------------------------------------
# density-fitted hartree fock energies and gradients with 6-31g
molecule h2o {
0 1
O 0.0000000000 0.0000000000 0.0000000000
H 0.0000000000 0.0000000000 1.4000000000
H 0.0000000000 1.3787308542 -0.2431074487
}

set basis 6-31g

gradient('mp2')
--------------------------------------------------------------------------

    Molecular point group: c2v
  Charge       = 0
  Multiplicity = 1
  Basis Set: 6-31G
    Blend: 6-31G
  Basis Set: (6-31G AUX)
    Blend: CC-PVDZ-JKFIT

    Orbital Energies (a.u.)
    -----------------------

    Doubly Occupied:

       1A1   -20.638884     2A1    -1.229718     1B2    -0.529877
       1B1    -0.501184     3A1    -0.499016

  @DF-RHF Final Energy:   -75.81496462880800

   => Energetics <=

    Nuclear Repulsion Energy =              6.2944508787396174
    One-Electron Energy =                -117.4214740555897265
    Two-Electron Energy =                  35.3120585480421170
    Total Energy =                        -75.8149646288079992
  Basis Set: (6-31G AUX)
    Blend: CC-PVDZ-RI
    Molecular point group: c2v

    Geometry (in Angstrom), charge = 0, multiplicity = 1:

       Center              X                  Y                   Z               Mass
    ------------   -----------------  -----------------  -----------------  -----------------
           O         -0.000000000000     0.000000000000    -0.100712491431    15.994914619560
           H          0.000000000000    -1.072462220348     0.799190162134     1.007825032070
           H         -0.000000000000     1.072462220348     0.799190162134     1.007825032070

  Basis Set: 6-31G
    Blend: 6-31G
  Basis Set: (6-31G AUX)
    Blend: CC-PVDZ-JKFIT
  Basis Set: (6-31G AUX)
    Blend: CC-PVDZ-JKFIT
	 Reference Energy          =     -75.8149646288079992 [Eh]
	 Singles Energy            =      -0.0000000000000000 [Eh]
	 Same-Spin Energy          =      -0.0389229167906115 [Eh]
	 Opposite-Spin Energy      =      -0.1353244937586708 [Eh]
	 Correlation Energy        =      -0.1742474105492823 [Eh]
	 Total Energy              =     -75.9892120393572839 [Eh]

	 ================> DF-SCS-MP2 Energies <==================
	-----------------------------------------------------------
	 SCS Same-Spin Scale       =       0.3333333333333333 [-]
	 SCS Opposite-Spin Scale   =       1.2000000000000000 [-]
	 SCS Same-Spin Energy      =      -0.0129743055968705 [Eh]
	 SCS Opposite-Spin Energy  =      -0.1623893925104049 [Eh]
	 SCS Correlation Energy    =      -0.1753636981072754 [Eh]
	 SCS Total Energy          =     -75.9903283269152752 [Eh]
	-----------------------------------------------------------

  -Total Gradient:
     Atom            X                  Y                   Z
    ------   -----------------  -----------------  -----------------
       1        0.000000000000     0.000000000005    -0.113731047619
       2       -0.000000000000    -0.079987851860     0.056865523811
       3       -0.000000000000     0.079987851854     0.056865523808

*** Psi4 exiting successfully. Buy a developer a beer!
