                               Psi4 1.2a1.dev429

  ==> Input File <==

--------------------------------------------------------------------------
# density-fitted hartree fock energies and gradients with 6-31g
molecule h20 {
0 1
O 0.0000000000 0.0000000000 0.0000000000
H 0.0000000000 0.0000000000 1.2000000000
H 0.0000000000 0.2394141003 -0.6577848346
}

set basis 6-31g

gradient('hf')
--------------------------------------------------------------------------

    Molecular point group: cs
  Charge       = 0
  Multiplicity = 1
  Basis Set: 6-31G
    Blend: 6-31G
  Basis Set: (6-31G AUX)
    Blend: CC-PVDZ-JKFIT

    Orbital Energies (a.u.)
    -----------------------

    Doubly Occupied:

       1Ap   -20.499077     2Ap    -1.364051     3Ap    -0.757137
       4Ap    -0.471687     1App   -0.469882

  @DF-RHF Final Energy:   -75.77832679653818

   => Energetics <=

    Nuclear Repulsion Energy =              9.8580944627646723
    One-Electron Energy =                -124.1491735055572008
    Two-Electron Energy =                  38.5127522462543439
    Total Energy =                        -75.7783267965381810
    Molecular point group: cs

    Geometry (in Angstrom), charge = 0, multiplicity = 1:

       Center              X                  Y                   Z               Mass
    ------------   -----------------  -----------------  -----------------  -----------------
           O          0.013396999347     0.030340970761     0.000000000000    15.994914619560
           H          0.013396999347    -1.169659029239     0.000000000000     1.007825032070
           H         -0.226017100953     0.688125805361     0.000000000000     1.007825032070

  Basis Set: 6-31G
    Blend: 6-31G
  Basis Set: (6-31G AUX)
    Blend: CC-PVDZ-JKFIT

  -Total Gradient:
     Atom            X                  Y                   Z
    ------   -----------------  -----------------  -----------------
       1       -0.300894752472     0.832690995493     0.000000000000
       2        0.020243054277    -0.163069759558     0.000000000000
       3        0.280651698195    -0.669621235934     0.000000000000

*** Psi4 exiting successfully. Buy a developer a beer!
