                               Psi4 1.2a1.dev429

  ==> Input File <==

--------------------------------------------------------------------------
# density-fitted hartree fock energies and gradients with 6-31g
molecule h2o {
0 1
O 0.0000000000 0.0000000000 0.0000000000
H 0.0000000000 0.0000000000 1.3000000000
H 0.0000000000 0.2736161147 -0.7517540966
}

set basis 6-31g

gradient('mp2')
--------------------------------------------------------------------------

    Molecular point group: cs
  Charge       = 0
  Multiplicity = 1
  Basis Set: 6-31G
    Blend: 6-31G
  Basis Set: (6-31G AUX)
    Blend: CC-PVDZ-JKFIT

    Orbital Energies (a.u.)
    -----------------------

    Doubly Occupied:

       1Ap   -20.503343     2Ap    -1.301769     3Ap    -0.696677
       1App   -0.454727     4Ap    -0.453949

  @DF-RHF Final Energy:   -75.83822958548132

   => Energetics <=

    Nuclear Repulsion Energy =              8.8038985028813599
    One-Electron Energy =                -122.4633254383991527
    Two-Electron Energy =                  37.8211973500364635
    Total Energy =                        -75.8382295854813151
  Basis Set: (6-31G AUX)
    Blend: CC-PVDZ-RI
    Molecular point group: cs

    Geometry (in Angstrom), charge = 0, multiplicity = 1:

       Center              X                  Y                   Z               Mass
    ------------   -----------------  -----------------  -----------------  -----------------
           O          0.015310856401     0.030678435401     0.000000000000    15.994914619560
           H          0.015310856401    -1.269321564599     0.000000000000     1.007825032070
           H         -0.258305258299     0.782432532001     0.000000000000     1.007825032070

  Basis Set: 6-31G
    Blend: 6-31G
  Basis Set: (6-31G AUX)
    Blend: CC-PVDZ-JKFIT
  Basis Set: (6-31G AUX)
    Blend: CC-PVDZ-JKFIT
	 Reference Energy          =     -75.8382295854813151 [Eh]
	 Singles Energy            =      -0.0000000000000000 [Eh]
	 Same-Spin Energy          =      -0.0315665483540792 [Eh]
	 Opposite-Spin Energy      =      -0.1003126326854859 [Eh]
	 Correlation Energy        =      -0.1318791810395651 [Eh]
	 Total Energy              =     -75.9701087665208803 [Eh]

	 ================> DF-SCS-MP2 Energies <==================
	-----------------------------------------------------------
	 SCS Same-Spin Scale       =       0.3333333333333333 [-]
	 SCS Opposite-Spin Scale   =       1.2000000000000000 [-]
	 SCS Same-Spin Energy      =      -0.0105221827846931 [Eh]
	 SCS Opposite-Spin Energy  =      -0.1203751592225831 [Eh]
	 SCS Correlation Energy    =      -0.1308973420072761 [Eh]
	 SCS Total Energy          =     -75.9691269274885883 [Eh]
	-----------------------------------------------------------

  -Total Gradient:
     Atom            X                  Y                   Z
    ------   -----------------  -----------------  -----------------
       1       -0.167934649989     0.418233735078     0.000000000000
       2        0.025090334081    -0.144980949849    -0.000000000000
       3        0.142844315908    -0.273252785229     0.000000000000

*** Psi4 exiting successfully. Buy a developer a beer!
