                               Psi4 1.2a1.dev429

  ==> Input File <==

--------------------------------------------------------------------------
# density-fitted hartree fock energies and gradients with 6-31g
molecule h2o {
0 1
O 0.0000000000 0.0000000000 0.0000000000
H 0.0000000000 0.0000000000 0.8000000000
H 0.0000000000 0.2083778132 -1.1817693036
}

set basis 6-31g

gradient('mp2')
--------------------------------------------------------------------------

    Molecular point group: cs
  Charge       = 0
  Multiplicity = 1
  Basis Set: 6-31G
    Blend: 6-31G
  Basis Set: (6-31G AUX)
    Blend: CC-PVDZ-JKFIT

    Orbital Energies (a.u.)
    -----------------------

    Doubly Occupied:

       1Ap   -20.497566     2Ap    -1.304951     3Ap    -0.728502
       4Ap    -0.457453     1App   -0.457161

  @DF-RHF Final Energy:   -75.86202184544351

   => Energetics <=

    Nuclear Repulsion Energy =              9.0851787829709867
    One-Electron Energy =                -123.0031351949756981
    Two-Electron Energy =                  38.0559345665612199
    Total Energy =                        -75.8620218454434934
  Basis Set: (6-31G AUX)
    Blend: CC-PVDZ-RI
    Molecular point group: cs

    Geometry (in Angstrom), charge = 0, multiplicity = 1:

       Center              X                  Y                   Z               Mass
    ------------   -----------------  -----------------  -----------------  -----------------
           O          0.011660288279    -0.021362831616     0.000000000000    15.994914619560
           H          0.011660288279    -0.821362831616     0.000000000000     1.007825032070
           H         -0.196717524921     1.160406471984     0.000000000000     1.007825032070

  Basis Set: 6-31G
    Blend: 6-31G
  Basis Set: (6-31G AUX)
    Blend: CC-PVDZ-JKFIT
  Basis Set: (6-31G AUX)
    Blend: CC-PVDZ-JKFIT
	 Reference Energy          =     -75.8620218454435076 [Eh]
	 Singles Energy            =      -0.0000000000000000 [Eh]
	 Same-Spin Energy          =      -0.0308485778386431 [Eh]
	 Opposite-Spin Energy      =      -0.0969386689499643 [Eh]
	 Correlation Energy        =      -0.1277872467886073 [Eh]
	 Total Energy              =     -75.9898090922321217 [Eh]

	 ================> DF-SCS-MP2 Energies <==================
	-----------------------------------------------------------
	 SCS Same-Spin Scale       =       0.3333333333333333 [-]
	 SCS Opposite-Spin Scale   =       1.2000000000000000 [-]
	 SCS Same-Spin Energy      =      -0.0102828592795477 [Eh]
	 SCS Opposite-Spin Energy  =      -0.1163264027399571 [Eh]
	 SCS Correlation Energy    =      -0.1266092620195048 [Eh]
	 SCS Total Energy          =     -75.9886311074630072 [Eh]
	-----------------------------------------------------------

  -Total Gradient:
     Atom            X                  Y                   Z
    ------   -----------------  -----------------  -----------------
       1       -0.008089712104    -0.443369197954    -0.000000000000
       2        0.020225343156     0.296895875453     0.000000000000
       3       -0.012135631052     0.146473322501     0.000000000000

*** Psi4 exiting successfully. Buy a developer a beer!
