                               Psi4 1.2a1.dev429

  ==> Input File <==

--------------------------------------------------------------------------
# density-fitted hartree fock energies and gradients with 6-31g
molecule h20 {
0 1
O 0.0000000000 0.0000000000 0.0000000000
H 0.0000000000 0.0000000000 1.4000000000
H 0.0000000000 0.5785088487 -0.6894399988
}

set basis 6-31g

gradient('hf')
--------------------------------------------------------------------------

    Molecular point group: cs
  Charge       = 0
  Multiplicity = 1
  Basis Set: 6-31G
    Blend: 6-31G
  Basis Set: (6-31G AUX)
    Blend: CC-PVDZ-JKFIT

    Orbital Energies (a.u.)
    -----------------------

    Doubly Occupied:

       1Ap   -20.544432     2Ap    -1.279695     3Ap    -0.651532
       1App   -0.467741     4Ap    -0.462203

  @DF-RHF Final Energy:   -75.86462289727724

   => Energetics <=

    Nuclear Repulsion Energy =              7.9717472009505785
    One-Electron Energy =                -120.8615354132654858
    Two-Electron Energy =                  37.0251653150376683
    Total Energy =                        -75.8646228972772434
    Molecular point group: cs

    Geometry (in Angstrom), charge = 0, multiplicity = 1:

       Center              X                  Y                   Z               Mass
    ------------   -----------------  -----------------  -----------------  -----------------
           O          0.032371872245     0.039761116243     0.000000000000    15.994914619560
           H          0.032371872245    -1.360238883757     0.000000000000     1.007825032070
           H         -0.546136976455     0.729201115043     0.000000000000     1.007825032070

  Basis Set: 6-31G
    Blend: 6-31G
  Basis Set: (6-31G AUX)
    Blend: CC-PVDZ-JKFIT

  -Total Gradient:
     Atom            X                  Y                   Z
    ------   -----------------  -----------------  -----------------
       1       -0.106017299335     0.169336107153     0.000000000000
       2        0.028095661643    -0.144464633349     0.000000000000
       3        0.077921637692    -0.024871473804     0.000000000000

*** Psi4 exiting successfully. Buy a developer a beer!
