                               Psi4 1.2a1.dev429

  ==> Input File <==

--------------------------------------------------------------------------
# density-fitted hartree fock energies and gradients with 6-31g
molecule h20 {
0 1
O 0.0000000000 0.0000000000 0.0000000000
H 0.0000000000 0.0000000000 1.3000000000
H 0.0000000000 1.2000000000 0.0000000000
}

set basis 6-31g

gradient('hf')
--------------------------------------------------------------------------

    Molecular point group: cs
  Charge       = 0
  Multiplicity = 1
  Basis Set: 6-31G
    Blend: 6-31G
  Basis Set: (6-31G AUX)
    Blend: CC-PVDZ-JKFIT

    Orbital Energies (a.u.)
    -----------------------

    Doubly Occupied:

       1Ap   -20.625294     2Ap    -1.263624     3Ap    -0.570040
       4Ap    -0.535126     1App   -0.504657

  @DF-RHF Final Energy:   -75.88450307557662

   => Energetics <=

    Nuclear Repulsion Energy =              7.0834318298899666
    One-Electron Energy =                -118.9383876838155913
    Two-Electron Energy =                  35.9704527783490136
    Total Energy =                        -75.8845030755766174
    Molecular point group: cs

    Geometry (in Angstrom), charge = 0, multiplicity = 1:

       Center              X                  Y                   Z               Mass
    ------------   -----------------  -----------------  -----------------  -----------------
           O          0.067148923963     0.072744667627     0.000000000000    15.994914619560
           H          0.067148923963    -1.227255332373     0.000000000000     1.007825032070
           H         -1.132851076037     0.072744667627     0.000000000000     1.007825032070

  Basis Set: 6-31G
    Blend: 6-31G
  Basis Set: (6-31G AUX)
    Blend: CC-PVDZ-JKFIT

  -Total Gradient:
     Atom            X                  Y                   Z
    ------   -----------------  -----------------  -----------------
       1        0.126577190836     0.136762004375     0.000000000000
       2       -0.012007283519    -0.123754110659     0.000000000000
       3       -0.114569907317    -0.013007893716     0.000000000000

*** Psi4 exiting successfully. Buy a developer a beer!
