                               Psi4 1.2a1.dev429

  ==> Input File <==

--------------------------------------------------------------------------
# density-fitted hartree fock energies and gradients with 6-31g
molecule h20 {
0 1
O 0.0000000000 0.0000000000 0.0000000000
H 0.0000000000 0.0000000000 1.4000000000
H 0.0000000000 0.6577848346 -0.2394141003
}

set basis 6-31g

gradient('hf')
--------------------------------------------------------------------------

    Molecular point group: cs
  Charge       = 0
  Multiplicity = 1
  Basis Set: 6-31G
    Blend: 6-31G
  Basis Set: (6-31G AUX)
    Blend: CC-PVDZ-JKFIT

    Orbital Energies (a.u.)
    -----------------------

    Doubly Occupied:

       1Ap   -20.562216     2Ap    -1.411336     3Ap    -0.698019
       4Ap    -0.510793     1App   -0.502214

  @DF-RHF Final Energy:   -75.76428889627785

   => Energetics <=

    Nuclear Repulsion Energy =              9.3711796324457630
    One-Electron Energy =                -122.9017809740708458
    Two-Electron Energy =                  37.7663124453472392
    Total Energy =                        -75.7642888962778471
    Molecular point group: cs

    Geometry (in Angstrom), charge = 0, multiplicity = 1:

       Center              X                  Y                   Z               Mass
    ------------   -----------------  -----------------  -----------------  -----------------
           O          0.036807953202     0.064943411943     0.000000000000    15.994914619560
           H          0.036807953202    -1.335056588057     0.000000000000     1.007825032070
           H         -0.620976881398     0.304357512243     0.000000000000     1.007825032070

  Basis Set: 6-31G
    Blend: 6-31G
  Basis Set: (6-31G AUX)
    Blend: CC-PVDZ-JKFIT

  -Total Gradient:
     Atom            X                  Y                   Z
    ------   -----------------  -----------------  -----------------
       1       -0.713025414918     0.383285246752     0.000000000000
       2        0.006195383600    -0.139206133336     0.000000000000
       3        0.706830031318    -0.244079113416     0.000000000000

*** Psi4 exiting successfully. Buy a developer a beer!
