                               Psi4 1.2a1.dev429

  ==> Input File <==

--------------------------------------------------------------------------
# density-fitted hartree fock energies and gradients with 6-31g
molecule h20 {
0 1
O 0.0000000000 0.0000000000 0.0000000000
H 0.0000000000 0.0000000000 1.1000000000
H 0.0000000000 0.6128355545 -0.5142300877
}

set basis 6-31g

gradient('hf')
--------------------------------------------------------------------------

    Molecular point group: cs
  Charge       = 0
  Multiplicity = 1
  Basis Set: 6-31G
    Blend: 6-31G
  Basis Set: (6-31G AUX)
    Blend: CC-PVDZ-JKFIT

    Orbital Energies (a.u.)
    -----------------------

    Doubly Occupied:

       1Ap   -20.534788     2Ap    -1.356469     3Ap    -0.749200
       4Ap    -0.512550     1App   -0.489174

  @DF-RHF Final Energy:   -75.92427841221740

   => Energetics <=

    Nuclear Repulsion Energy =              9.4468105693122482
    One-Electron Energy =                -123.4578129658721792
    Two-Electron Energy =                  38.0867239843425409
    Total Energy =                        -75.9242784122173902
    Molecular point group: cs

    Geometry (in Angstrom), charge = 0, multiplicity = 1:

       Center              X                  Y                   Z               Mass
    ------------   -----------------  -----------------  -----------------  -----------------
           O          0.034292706709     0.032778182751     0.000000000000    15.994914619560
           H          0.034292706709    -1.067221817249     0.000000000000     1.007825032070
           H         -0.578542847791     0.547008270451     0.000000000000     1.007825032070

  Basis Set: 6-31G
    Blend: 6-31G
  Basis Set: (6-31G AUX)
    Blend: CC-PVDZ-JKFIT

  -Total Gradient:
     Atom            X                  Y                   Z
    ------   -----------------  -----------------  -----------------
       1       -0.261476256358     0.280843393945     0.000000000000
       2        0.021702190018    -0.118603085806     0.000000000000
       3        0.239774066340    -0.162240308139     0.000000000000

*** Psi4 exiting successfully. Buy a developer a beer!
