                               Psi4 1.2a1.dev429

  ==> Input File <==

--------------------------------------------------------------------------
# density-fitted hartree fock energies and gradients with 6-31g
molecule h2o {
0 1
O 0.0000000000 0.0000000000 0.0000000000
H 0.0000000000 0.0000000000 1.4000000000
H 0.0000000000 0.8863269777 -0.1562833599
}

set basis 6-31g

gradient('mp2')
--------------------------------------------------------------------------

    Molecular point group: cs
  Charge       = 0
  Multiplicity = 1
  Basis Set: 6-31G
    Blend: 6-31G
  Basis Set: (6-31G AUX)
    Blend: CC-PVDZ-JKFIT

    Orbital Energies (a.u.)
    -----------------------

    Doubly Occupied:

       1Ap   -20.592986     2Ap    -1.321542     3Ap    -0.645979
       4Ap    -0.513710     1App   -0.502061

  @DF-RHF Final Energy:   -75.89347374227627

   => Energetics <=

    Nuclear Repulsion Energy =              8.0231358687461949
    One-Electron Energy =                -120.6806630638931637
    Two-Electron Energy =                  36.7640534528706908
    Total Energy =                        -75.8934737422762851
  Basis Set: (6-31G AUX)
    Blend: CC-PVDZ-RI
    Molecular point group: cs

    Geometry (in Angstrom), charge = 0, multiplicity = 1:

       Center              X                  Y                   Z               Mass
    ------------   -----------------  -----------------  -----------------  -----------------
           O          0.049596585694     0.069595195082     0.000000000000    15.994914619560
           H          0.049596585694    -1.330404804918     0.000000000000     1.007825032070
           H         -0.836730392006     0.225878554982     0.000000000000     1.007825032070

  Basis Set: 6-31G
    Blend: 6-31G
  Basis Set: (6-31G AUX)
    Blend: CC-PVDZ-JKFIT
  Basis Set: (6-31G AUX)
    Blend: CC-PVDZ-JKFIT
	 Reference Energy          =     -75.8934737422762709 [Eh]
	 Singles Energy            =      -0.0000000000000000 [Eh]
	 Same-Spin Energy          =      -0.0328853079647755 [Eh]
	 Opposite-Spin Energy      =      -0.1127873822910719 [Eh]
	 Correlation Energy        =      -0.1456726902558474 [Eh]
	 Total Energy              =     -76.0391464325321209 [Eh]

	 ================> DF-SCS-MP2 Energies <==================
	-----------------------------------------------------------
	 SCS Same-Spin Scale       =       0.3333333333333333 [-]
	 SCS Opposite-Spin Scale   =       1.2000000000000000 [-]
	 SCS Same-Spin Energy      =      -0.0109617693215918 [Eh]
	 SCS Opposite-Spin Energy  =      -0.1353448587492863 [Eh]
	 SCS Correlation Energy    =      -0.1463066280708781 [Eh]
	 SCS Total Energy          =     -76.0397803703471453 [Eh]
	-----------------------------------------------------------

  -Total Gradient:
     Atom            X                  Y                   Z
    ------   -----------------  -----------------  -----------------
       1       -0.106599477057     0.125846123966    -0.000000000000
       2        0.000244646508    -0.107479335733     0.000000000000
       3        0.106354830549    -0.018366788233     0.000000000000

*** Psi4 exiting successfully. Buy a developer a beer!
