                               Psi4 1.2a1.dev429

  ==> Input File <==

--------------------------------------------------------------------------
# density-fitted hartree fock energies and gradients with 6-31g
molecule o2 {
0 3
O 0.0000000000 0.0000000000 0.0000000000
O 0.0000000000 0.0000000000 1.1535353535
}

set basis 6-31g
set reference rohf

gradient('scf')
--------------------------------------------------------------------------

    Molecular point group: d2h
  Charge       = 0
  Multiplicity = 3
  Basis Set: 6-31G
    Blend: 6-31G
  Basis Set: (6-31G AUX)
    Blend: CC-PVDZ-JKFIT

    Orbital Energies (a.u.)
    -----------------------

    Doubly Occupied:

       1Ag   -20.738668     1B1u  -20.737612     2Ag    -1.745638
       2B1u   -1.080521     1B3u   -0.739304     1B2u   -0.739304
       3Ag    -0.739240

    Singly Occupied:

       1B3g   -0.206067     1B2g   -0.206067

  @DF-ROHF Final Energy:  -149.52595591518826

   => Energetics <=

    Nuclear Repulsion Energy =             29.3596041482399137
    One-Electron Energy =                -263.6666314401072668
    Two-Electron Energy =                  84.7810713766790798
    Total Energy =                       -149.5259559151882627
    Molecular point group: d2h

    Geometry (in Angstrom), charge = 0, multiplicity = 3:

       Center              X                  Y                   Z               Mass
    ------------   -----------------  -----------------  -----------------  -----------------
           O          0.000000000000     0.000000000000    -0.576767676750    15.994914619560
           O          0.000000000000     0.000000000000     0.576767676750    15.994914619560

  Basis Set: 6-31G
    Blend: 6-31G
  Basis Set: (6-31G AUX)
    Blend: CC-PVDZ-JKFIT

  -Total Gradient:
     Atom            X                  Y                   Z
    ------   -----------------  -----------------  -----------------
       1        0.000000000000     0.000000000000     0.074192775215
       2       -0.000000000000    -0.000000000000    -0.074192775215

*** Psi4 exiting successfully. Buy a developer a beer!
