                               Psi4 1.2a1.dev429

  ==> Input File <==

--------------------------------------------------------------------------
# density-fitted hartree fock energies and gradients with 6-31g
molecule h2o {
0 1
O 0.0000000000 0.0000000000 0.0000000000
H 0.0000000000 0.0000000000 1.4000000000
H 0.0000000000 0.3420201433 -0.9396926208
}

set basis 6-31g

gradient('mp2')
--------------------------------------------------------------------------

    Molecular point group: cs
  Charge       = 0
  Multiplicity = 1
  Basis Set: 6-31G
    Blend: 6-31G
  Basis Set: (6-31G AUX)
    Blend: CC-PVDZ-JKFIT

    Orbital Energies (a.u.)
    -----------------------

    Doubly Occupied:

       1Ap   -20.518856     2Ap    -1.220550     3Ap    -0.617107
       1App   -0.439710     4Ap    -0.433687

  @DF-RHF Final Energy:   -75.83909438239526

   => Energetics <=

    Nuclear Repulsion Energy =              7.4810827381313381
    One-Electron Energy =                -120.1805337134662466
    Two-Electron Energy =                  36.8603565929396524
    Total Energy =                        -75.8390943823952597
  Basis Set: (6-31G AUX)
    Blend: CC-PVDZ-RI
    Molecular point group: cs

    Geometry (in Angstrom), charge = 0, multiplicity = 1:

       Center              X                  Y                   Z               Mass
    ------------   -----------------  -----------------  -----------------  -----------------
           O          0.019138570497     0.025757621005     0.000000000000    15.994914619560
           H          0.019138570497    -1.374242378995     0.000000000000     1.007825032070
           H         -0.322881572803     0.965450241805     0.000000000000     1.007825032070

  Basis Set: 6-31G
    Blend: 6-31G
  Basis Set: (6-31G AUX)
    Blend: CC-PVDZ-JKFIT
  Basis Set: (6-31G AUX)
    Blend: CC-PVDZ-JKFIT
	 Reference Energy          =     -75.8390943823952597 [Eh]
	 Singles Energy            =      -0.0000000000000000 [Eh]
	 Same-Spin Energy          =      -0.0338045443306207 [Eh]
	 Opposite-Spin Energy      =      -0.1087507833083820 [Eh]
	 Correlation Energy        =      -0.1425553276390027 [Eh]
	 Total Energy              =     -75.9816497100342616 [Eh]

	 ================> DF-SCS-MP2 Energies <==================
	-----------------------------------------------------------
	 SCS Same-Spin Scale       =       0.3333333333333333 [-]
	 SCS Opposite-Spin Scale   =       1.2000000000000000 [-]
	 SCS Same-Spin Energy      =      -0.0112681814435402 [Eh]
	 SCS Opposite-Spin Energy  =      -0.1305009399700584 [Eh]
	 SCS Correlation Energy    =      -0.1417691214135987 [Eh]
	 SCS Total Energy          =     -75.9808635038088624 [Eh]
	-----------------------------------------------------------

  -Total Gradient:
     Atom            X                  Y                   Z
    ------   -----------------  -----------------  -----------------
       1       -0.062689358369     0.083691113300     0.000000000000
       2        0.031663082080    -0.128054444971    -0.000000000000
       3        0.031026276289     0.044363331671    -0.000000000000

*** Psi4 exiting successfully. Buy a developer a beer!
