                               Psi4 1.2a1.dev429

  ==> Input File <==

--------------------------------------------------------------------------
# density-fitted hartree fock energies and gradients with 6-31g
molecule h2o {
0 1
O 0.0000000000 0.0000000000 0.0000000000
H 0.0000000000 0.0000000000 1.3000000000
H 0.0000000000 0.2604722665 -1.4772116295
}

set basis 6-31g

gradient('mp2')
--------------------------------------------------------------------------

    Molecular point group: cs
  Charge       = 0
  Multiplicity = 1
  Basis Set: 6-31G
    Blend: 6-31G
  Basis Set: (6-31G AUX)
    Blend: CC-PVDZ-JKFIT

    Orbital Energies (a.u.)
    -----------------------

    Doubly Occupied:

       1Ap   -20.519037     2Ap    -1.148151     3Ap    -0.519801
       1App   -0.417119     4Ap    -0.410435

  @DF-RHF Final Energy:   -75.74074934393956

   => Energetics <=

    Nuclear Repulsion Energy =              6.2684636497683108
    One-Electron Energy =                -117.9893383284265269
    Two-Electron Energy =                  35.9801253347186716
    Total Energy =                        -75.7407493439395409
  Basis Set: (6-31G AUX)
    Blend: CC-PVDZ-RI
    Molecular point group: cs

    Geometry (in Angstrom), charge = 0, multiplicity = 1:

       Center              X                  Y                   Z               Mass
    ------------   -----------------  -----------------  -----------------  -----------------
           O          0.014575360348    -0.009916308529     0.000000000000    15.994914619560
           H          0.014575360348    -1.309916308529     0.000000000000     1.007825032070
           H         -0.245896906152     1.467295320971     0.000000000000     1.007825032070

  Basis Set: 6-31G
    Blend: 6-31G
  Basis Set: (6-31G AUX)
    Blend: CC-PVDZ-JKFIT
  Basis Set: (6-31G AUX)
    Blend: CC-PVDZ-JKFIT
	 Reference Energy          =     -75.7407493439395552 [Eh]
	 Singles Energy            =      -0.0000000000000000 [Eh]
	 Same-Spin Energy          =      -0.0352455293363216 [Eh]
	 Opposite-Spin Energy      =      -0.1155241535993426 [Eh]
	 Correlation Energy        =      -0.1507696829356642 [Eh]
	 Total Energy              =     -75.8915190268752156 [Eh]

	 ================> DF-SCS-MP2 Energies <==================
	-----------------------------------------------------------
	 SCS Same-Spin Scale       =       0.3333333333333333 [-]
	 SCS Opposite-Spin Scale   =       1.2000000000000000 [-]
	 SCS Same-Spin Energy      =      -0.0117485097787739 [Eh]
	 SCS Opposite-Spin Energy  =      -0.1386289843192112 [Eh]
	 SCS Correlation Energy    =      -0.1503774940979850 [Eh]
	 SCS Total Energy          =     -75.8911268380375361 [Eh]
	-----------------------------------------------------------

  -Total Gradient:
     Atom            X                  Y                   Z
    ------   -----------------  -----------------  -----------------
       1       -0.050946444972    -0.000573246665     0.000000000000
       2        0.037960199230    -0.115234957770    -0.000000000000
       3        0.012986245742     0.115808204435    -0.000000000000

*** Psi4 exiting successfully. Buy a developer a beer!
