                               Psi4 1.2a1.dev429

  ==> Input File <==

--------------------------------------------------------------------------
# density-fitted hartree fock energies and gradients with 6-31g
molecule h20 {
0 1
O 0.0000000000 0.0000000000 0.0000000000
H 0.0000000000 0.0000000000 0.7000000000
H 0.0000000000 0.1910129954 -1.0832885283
}

set basis 6-31g

gradient('hf')
--------------------------------------------------------------------------

    Molecular point group: cs
  Charge       = 0
  Multiplicity = 1
  Basis Set: 6-31G
    Blend: 6-31G
  Basis Set: (6-31G AUX)
    Blend: CC-PVDZ-JKFIT

    Orbital Energies (a.u.)
    -----------------------

    Doubly Occupied:

       1Ap   -20.495630     2Ap    -1.369794     3Ap    -0.798044
       4Ap    -0.476495     1App   -0.475710

  @DF-RHF Final Energy:   -75.80182899147145

   => Energetics <=

    Nuclear Repulsion Energy =             10.1913556074663916
    One-Electron Energy =                -124.7550225675172300
    Two-Electron Energy =                  38.7618379685793855
    Total Energy =                        -75.8018289914714529
    Molecular point group: cs

    Geometry (in Angstrom), charge = 0, multiplicity = 1:

       Center              X                  Y                   Z               Mass
    ------------   -----------------  -----------------  -----------------  -----------------
           O          0.010688597587    -0.021447843536     0.000000000000    15.994914619560
           H          0.010688597587    -0.721447843536     0.000000000000     1.007825032070
           H         -0.180324397813     1.061840684764     0.000000000000     1.007825032070

  Basis Set: 6-31G
    Blend: 6-31G
  Basis Set: (6-31G AUX)
    Blend: CC-PVDZ-JKFIT

  -Total Gradient:
     Atom            X                  Y                   Z
    ------   -----------------  -----------------  -----------------
       1       -0.002455416551    -0.862186068239     0.000000000000
       2        0.016947330216     0.717891932808     0.000000000000
       3       -0.014491913666     0.144294135431     0.000000000000

*** Psi4 exiting successfully. Buy a developer a beer!
