                               Psi4 1.2a1.dev429

  ==> Input File <==

--------------------------------------------------------------------------
# density-fitted hartree fock energies and gradients with 6-31g
molecule h2o {
0 1
O 0.0000000000 0.0000000000 0.0000000000
H 0.0000000000 0.0000000000 1.3000000000
H 0.0000000000 0.7794228634 -0.4500000000
}

set basis 6-31g

gradient('mp2')
--------------------------------------------------------------------------

    Molecular point group: cs
  Charge       = 0
  Multiplicity = 1
  Basis Set: 6-31G
    Blend: 6-31G
  Basis Set: (6-31G AUX)
    Blend: CC-PVDZ-JKFIT

    Orbital Energies (a.u.)
    -----------------------

    Doubly Occupied:

       1Ap   -20.566956     2Ap    -1.307873     3Ap    -0.665647
       4Ap    -0.502505     1App   -0.487674

  @DF-RHF Final Energy:   -75.91274329725479

   => Energetics <=

    Nuclear Repulsion Energy =              8.2365007938961305
    One-Electron Energy =                -121.2371804202154522
    Two-Electron Energy =                  37.0879363290645259
    Total Energy =                        -75.9127432972547922
  Basis Set: (6-31G AUX)
    Blend: CC-PVDZ-RI
    Molecular point group: cs

    Geometry (in Angstrom), charge = 0, multiplicity = 1:

       Center              X                  Y                   Z               Mass
    ------------   -----------------  -----------------  -----------------  -----------------
           O          0.043614505491     0.047563821141     0.000000000000    15.994914619560
           H          0.043614505491    -1.252436178859     0.000000000000     1.007825032070
           H         -0.735808357909     0.497563821141     0.000000000000     1.007825032070

  Basis Set: 6-31G
    Blend: 6-31G
  Basis Set: (6-31G AUX)
    Blend: CC-PVDZ-JKFIT
  Basis Set: (6-31G AUX)
    Blend: CC-PVDZ-JKFIT
	 Reference Energy          =     -75.9127432972547922 [Eh]
	 Singles Energy            =      -0.0000000000000000 [Eh]
	 Same-Spin Energy          =      -0.0322615240441255 [Eh]
	 Opposite-Spin Energy      =      -0.1072875803284260 [Eh]
	 Correlation Energy        =      -0.1395491043725514 [Eh]
	 Total Energy              =     -76.0522924016273407 [Eh]

	 ================> DF-SCS-MP2 Energies <==================
	-----------------------------------------------------------
	 SCS Same-Spin Scale       =       0.3333333333333333 [-]
	 SCS Opposite-Spin Scale   =       1.2000000000000000 [-]
	 SCS Same-Spin Energy      =      -0.0107538413480418 [Eh]
	 SCS Opposite-Spin Energy  =      -0.1287450963941112 [Eh]
	 SCS Correlation Energy    =      -0.1394989377421530 [Eh]
	 SCS Total Energy          =     -76.0522422349969389 [Eh]
	-----------------------------------------------------------

  -Total Gradient:
     Atom            X                  Y                   Z
    ------   -----------------  -----------------  -----------------
       1       -0.115600829478     0.143418054176    -0.000000000000
       2        0.018356382646    -0.117890572320    -0.000000000000
       3        0.097244446833    -0.025527481856     0.000000000000

*** Psi4 exiting successfully. Buy a developer a beer!
