                               Psi4 1.2a1.dev429

  ==> Input File <==

--------------------------------------------------------------------------
# density-fitted hartree fock energies and gradients with 6-31g
molecule h2o {
0 1
O 0.0000000000 0.0000000000 0.0000000000
H 0.0000000000 0.0000000000 1.2000000000
H 0.0000000000 0.4000000000 -0.6928203230
}

set basis 6-31g

gradient('mp2')
--------------------------------------------------------------------------

    Molecular point group: cs
  Charge       = 0
  Multiplicity = 1
  Basis Set: 6-31G
    Blend: 6-31G
  Basis Set: (6-31G AUX)
    Blend: CC-PVDZ-JKFIT

    Orbital Energies (a.u.)
    -----------------------

    Doubly Occupied:

       1Ap   -20.516103     2Ap    -1.322765     3Ap    -0.727576
       4Ap    -0.474298     1App   -0.469721

  @DF-RHF Final Energy:   -75.87854045339975

   => Energetics <=

    Nuclear Repulsion Energy =              9.0931499334485473
    One-Electron Energy =                -122.9224557280949455
    Two-Electron Energy =                  37.9507653412466510
    Total Energy =                        -75.8785404533997507
  Basis Set: (6-31G AUX)
    Blend: CC-PVDZ-RI
    Molecular point group: cs

    Geometry (in Angstrom), charge = 0, multiplicity = 1:

       Center              X                  Y                   Z               Mass
    ------------   -----------------  -----------------  -----------------  -----------------
           O          0.022382974654     0.028380474639     0.000000000000    15.994914619560
           H          0.022382974654    -1.171619525361     0.000000000000     1.007825032070
           H         -0.377617025346     0.721200797639     0.000000000000     1.007825032070

  Basis Set: 6-31G
    Blend: 6-31G
  Basis Set: (6-31G AUX)
    Blend: CC-PVDZ-JKFIT
  Basis Set: (6-31G AUX)
    Blend: CC-PVDZ-JKFIT
	 Reference Energy          =     -75.8785404533997507 [Eh]
	 Singles Energy            =      -0.0000000000000000 [Eh]
	 Same-Spin Energy          =      -0.0308995057295792 [Eh]
	 Opposite-Spin Energy      =      -0.0983755878449887 [Eh]
	 Correlation Energy        =      -0.1292750935745678 [Eh]
	 Total Energy              =     -76.0078155469743137 [Eh]

	 ================> DF-SCS-MP2 Energies <==================
	-----------------------------------------------------------
	 SCS Same-Spin Scale       =       0.3333333333333333 [-]
	 SCS Opposite-Spin Scale   =       1.2000000000000000 [-]
	 SCS Same-Spin Energy      =      -0.0102998352431931 [Eh]
	 SCS Opposite-Spin Energy  =      -0.1180507054139864 [Eh]
	 SCS Correlation Energy    =      -0.1283505406571795 [Eh]
	 SCS Total Energy          =     -76.0068909940569313 [Eh]
	-----------------------------------------------------------

  -Total Gradient:
     Atom            X                  Y                   Z
    ------   -----------------  -----------------  -----------------
       1       -0.218585853500     0.376944884209     0.000000000000
       2        0.028591536314    -0.133639682780    -0.000000000000
       3        0.189994317185    -0.243305201429    -0.000000000000

*** Psi4 exiting successfully. Buy a developer a beer!
