                               Psi4 1.2a1.dev429

  ==> Input File <==

--------------------------------------------------------------------------
# density-fitted hartree fock energies and gradients with 6-31g
molecule h2o {
0 1
O 0.0000000000 0.0000000000 0.0000000000
H 0.0000000000 0.0000000000 1.4000000000
H 0.0000000000 0.2431074487 -1.3787308542
}

set basis 6-31g

gradient('mp2')
--------------------------------------------------------------------------

    Molecular point group: c2v
  Charge       = 0
  Multiplicity = 1
  Basis Set: 6-31G
    Blend: 6-31G
  Basis Set: (6-31G AUX)
    Blend: CC-PVDZ-JKFIT

    Orbital Energies (a.u.)
    -----------------------

    Doubly Occupied:

       1A1   -20.520343     2A1    -1.145901     1B2    -0.518130
       1B1    -0.417338     3A1    -0.411611

  @DF-RHF Final Energy:   -75.74094407726132

   => Energetics <=

    Nuclear Repulsion Energy =              6.2374533052069463
    One-Electron Energy =                -117.9301506001526860
    Two-Electron Energy =                  35.9517532176844270
    Total Energy =                        -75.7409440772613181
  Basis Set: (6-31G AUX)
    Blend: CC-PVDZ-RI
    Molecular point group: c2v

    Geometry (in Angstrom), charge = 0, multiplicity = 1:

       Center              X                  Y                   Z               Mass
    ------------   -----------------  -----------------  -----------------  -----------------
           O          0.000000000000     0.000000000000    -0.013655633465    15.994914619560
           H          0.000000000000    -1.394672577318     0.108362406366     1.007825032070
           H         -0.000000000000     1.394672577318     0.108362406366     1.007825032070

  Basis Set: 6-31G
    Blend: 6-31G
  Basis Set: (6-31G AUX)
    Blend: CC-PVDZ-JKFIT
  Basis Set: (6-31G AUX)
    Blend: CC-PVDZ-JKFIT
	 Reference Energy          =     -75.7409440772613181 [Eh]
	 Singles Energy            =      -0.0000000000000000 [Eh]
	 Same-Spin Energy          =      -0.0351692990568073 [Eh]
	 Opposite-Spin Energy      =      -0.1150534309120135 [Eh]
	 Correlation Energy        =      -0.1502227299688209 [Eh]
	 Total Energy              =     -75.8911668072301353 [Eh]

	 ================> DF-SCS-MP2 Energies <==================
	-----------------------------------------------------------
	 SCS Same-Spin Scale       =       0.3333333333333333 [-]
	 SCS Opposite-Spin Scale   =       1.2000000000000000 [-]
	 SCS Same-Spin Energy      =      -0.0117230996856024 [Eh]
	 SCS Opposite-Spin Energy  =      -0.1380641170944162 [Eh]
	 SCS Correlation Energy    =      -0.1497872167800187 [Eh]
	 SCS Total Energy          =     -75.8907312940413306 [Eh]
	-----------------------------------------------------------

  -Total Gradient:
     Atom            X                  Y                   Z
    ------   -----------------  -----------------  -----------------
       1        0.000000000000    -0.000000000002     0.047227012867
       2       -0.000000000000    -0.119104079435    -0.023613506434
       3       -0.000000000000     0.119104079437    -0.023613506434

*** Psi4 exiting successfully. Buy a developer a beer!
