                               Psi4 1.2a1.dev429

  ==> Input File <==

--------------------------------------------------------------------------
# density-fitted hartree fock energies and gradients with 6-31g
molecule h20 {
0 1
O 0.0000000000 0.0000000000 0.0000000000
H 0.0000000000 0.0000000000 1.3000000000
H 0.0000000000 0.5362311102 -0.4499513268
}

set basis 6-31g

gradient('hf')
--------------------------------------------------------------------------

    Molecular point group: cs
  Charge       = 0
  Multiplicity = 1
  Basis Set: 6-31G
    Blend: 6-31G
  Basis Set: (6-31G AUX)
    Blend: CC-PVDZ-JKFIT

    Orbital Energies (a.u.)
    -----------------------

    Doubly Occupied:

       1Ap   -20.535197     2Ap    -1.392233     3Ap    -0.721694
       4Ap    -0.497464     1App   -0.487935

  @DF-RHF Final Energy:   -75.77881831912161

   => Energetics <=

    Nuclear Repulsion Energy =              9.5933405117253141
    One-Electron Energy =                -123.4752720194047981
    Two-Electron Energy =                  38.1031131885578702
    Total Energy =                        -75.7788183191216120
    Molecular point group: cs

    Geometry (in Angstrom), charge = 0, multiplicity = 1:

       Center              X                  Y                   Z               Mass
    ------------   -----------------  -----------------  -----------------  -----------------
           O          0.030006118371     0.047566544768     0.000000000000    15.994914619560
           H          0.030006118371    -1.252433455232     0.000000000000     1.007825032070
           H         -0.506224991829     0.497517871568     0.000000000000     1.007825032070

  Basis Set: 6-31G
    Blend: 6-31G
  Basis Set: (6-31G AUX)
    Blend: CC-PVDZ-JKFIT

  -Total Gradient:
     Atom            X                  Y                   Z
    ------   -----------------  -----------------  -----------------
       1       -0.614403886935     0.594796675460     0.000000000000
       2        0.021832540990    -0.150499517279     0.000000000000
       3        0.592571345945    -0.444297158181     0.000000000000

*** Psi4 exiting successfully. Buy a developer a beer!
