                               Psi4 1.2a1.dev429

  ==> Input File <==

--------------------------------------------------------------------------
# density-fitted hartree fock energies and gradients with 6-31g
molecule h2o {
0 1
O 0.0000000000 0.0000000000 0.0000000000
H 0.0000000000 0.0000000000 1.0000000000
H 0.0000000000 1.1000000000 0.0000000000
}

set basis 6-31g

gradient('mp2')
--------------------------------------------------------------------------

    Molecular point group: cs
  Charge       = 0
  Multiplicity = 1
  Basis Set: 6-31G
    Blend: 6-31G
  Basis Set: (6-31G AUX)
    Blend: CC-PVDZ-JKFIT

    Orbital Energies (a.u.)
    -----------------------

    Doubly Occupied:

       1Ap   -20.589316     2Ap    -1.329197     3Ap    -0.641050
       4Ap    -0.572511     1App   -0.505484

  @DF-RHF Final Energy:   -75.95791994078370

   => Energetics <=

    Nuclear Repulsion Energy =              8.4379422971595854
    One-Electron Energy =                -121.5166068878610162
    Two-Electron Energy =                  37.1207446499177394
    Total Energy =                        -75.9579199407836967
  Basis Set: (6-31G AUX)
    Blend: CC-PVDZ-RI
    Molecular point group: cs

    Geometry (in Angstrom), charge = 0, multiplicity = 1:

       Center              X                  Y                   Z               Mass
    ------------   -----------------  -----------------  -----------------  -----------------
           O          0.061553180300     0.055957436636     0.000000000000    15.994914619560
           H          0.061553180300    -0.944042563364     0.000000000000     1.007825032070
           H         -1.038446819700     0.055957436636     0.000000000000     1.007825032070

  Basis Set: 6-31G
    Blend: 6-31G
  Basis Set: (6-31G AUX)
    Blend: CC-PVDZ-JKFIT
  Basis Set: (6-31G AUX)
    Blend: CC-PVDZ-JKFIT
	 Reference Energy          =     -75.9579199407836967 [Eh]
	 Singles Energy            =      -0.0000000000000000 [Eh]
	 Same-Spin Energy          =      -0.0322583585329506 [Eh]
	 Opposite-Spin Energy      =      -0.1068746520330977 [Eh]
	 Correlation Energy        =      -0.1391330105660483 [Eh]
	 Total Energy              =     -76.0970529513497382 [Eh]

	 ================> DF-SCS-MP2 Energies <==================
	-----------------------------------------------------------
	 SCS Same-Spin Scale       =       0.3333333333333333 [-]
	 SCS Opposite-Spin Scale   =       1.2000000000000000 [-]
	 SCS Same-Spin Energy      =      -0.0107527861776502 [Eh]
	 SCS Opposite-Spin Energy  =      -0.1282495824397173 [Eh]
	 SCS Correlation Energy    =      -0.1390023686173675 [Eh]
	 SCS Total Energy          =     -76.0969223094010658 [Eh]
	-----------------------------------------------------------

  -Total Gradient:
     Atom            X                  Y                   Z
    ------   -----------------  -----------------  -----------------
       1        0.088072627636     0.028678207940     0.000000000000
       2       -0.026364145902    -0.004710802071    -0.000000000000
       3       -0.061708481734    -0.023967405869    -0.000000000000

*** Psi4 exiting successfully. Buy a developer a beer!
