                               Psi4 1.2a1.dev429

  ==> Input File <==

--------------------------------------------------------------------------
# density-fitted hartree fock energies and gradients with 6-31g
molecule h20 {
0 1
O 0.0000000000 0.0000000000 0.0000000000
H 0.0000000000 0.0000000000 1.0000000000
H 0.0000000000 0.6062177826 -0.3500000000
}

set basis 6-31g

gradient('hf')
--------------------------------------------------------------------------

    Molecular point group: cs
  Charge       = 0
  Multiplicity = 1
  Basis Set: 6-31G
    Blend: 6-31G
  Basis Set: (6-31G AUX)
    Blend: CC-PVDZ-JKFIT

    Orbital Energies (a.u.)
    -----------------------

    Doubly Occupied:

       1Ap   -20.529533     2Ap    -1.432546     3Ap    -0.801404
       4Ap    -0.545591     1App   -0.505094

  @DF-RHF Final Energy:   -75.85525976636374

   => Energetics <=

    Nuclear Repulsion Energy =             10.6387420154765078
    One-Electron Energy =                -125.3596661045231571
    Two-Electron Energy =                  38.8656643226829175
    Total Energy =                        -75.8552597663637300
    Molecular point group: cs

    Geometry (in Angstrom), charge = 0, multiplicity = 1:

       Center              X                  Y                   Z               Mass
    ------------   -----------------  -----------------  -----------------  -----------------
           O          0.033922393158     0.036372333814     0.000000000000    15.994914619560
           H          0.033922393158    -0.963627666186     0.000000000000     1.007825032070
           H         -0.572295389442     0.386372333814     0.000000000000     1.007825032070

  Basis Set: 6-31G
    Blend: 6-31G
  Basis Set: (6-31G AUX)
    Blend: CC-PVDZ-JKFIT

  -Total Gradient:
     Atom            X                  Y                   Z
    ------   -----------------  -----------------  -----------------
       1       -0.645829906640     0.418976331412     0.000000000000
       2        0.006422101382    -0.060407784202     0.000000000000
       3        0.639407805259    -0.358568547209     0.000000000000

*** Psi4 exiting successfully. Buy a developer a beer!
