                               Psi4 1.2a1.dev429

  ==> Input File <==

--------------------------------------------------------------------------
# density-fitted hartree fock energies and gradients with 6-31g
molecule h2o {
0 1
O 0.0000000000 0.0000000000 0.0000000000
H 0.0000000000 0.0000000000 0.8000000000
H 0.0000000000 0.4000000000 -0.6928203230
}

set basis 6-31g

gradient('mp2')
--------------------------------------------------------------------------

    Molecular point group: c2v
  Charge       = 0
  Multiplicity = 1
  Basis Set: 6-31G
    Blend: 6-31G
  Basis Set: (6-31G AUX)
    Blend: CC-PVDZ-JKFIT

    Orbital Energies (a.u.)
    -----------------------

    Doubly Occupied:

       1A1   -20.504328     2A1    -1.402750     1B2    -0.887037
       3A1    -0.512571     1B1    -0.500787

  @DF-RHF Final Energy:   -75.90470841669730

   => Energetics <=

    Nuclear Repulsion Energy =             10.9259470215069232
    One-Electron Energy =                -126.0463640822068356
    Two-Electron Energy =                  39.2157086440026035
    Total Energy =                        -75.9047084166973036
  Basis Set: (6-31G AUX)
    Blend: CC-PVDZ-RI
    Molecular point group: c2v

    Geometry (in Angstrom), charge = 0, multiplicity = 1:

       Center              X                  Y                   Z               Mass
    ------------   -----------------  -----------------  -----------------  -----------------
           O         -0.000000000000     0.000000000000    -0.023172560507    15.994914619560
           H          0.000000000000    -0.772740661018     0.183882675579     1.007825032070
           H         -0.000000000000     0.772740661018     0.183882675579     1.007825032070

  Basis Set: 6-31G
    Blend: 6-31G
  Basis Set: (6-31G AUX)
    Blend: CC-PVDZ-JKFIT
  Basis Set: (6-31G AUX)
    Blend: CC-PVDZ-JKFIT
	 Reference Energy          =     -75.9047084166973036 [Eh]
	 Singles Energy            =      -0.0000000000000000 [Eh]
	 Same-Spin Energy          =      -0.0275680946977301 [Eh]
	 Opposite-Spin Energy      =      -0.0869477488631523 [Eh]
	 Correlation Energy        =      -0.1145158435608825 [Eh]
	 Total Energy              =     -76.0192242602581842 [Eh]

	 ================> DF-SCS-MP2 Energies <==================
	-----------------------------------------------------------
	 SCS Same-Spin Scale       =       0.3333333333333333 [-]
	 SCS Opposite-Spin Scale   =       1.2000000000000000 [-]
	 SCS Same-Spin Energy      =      -0.0091893648992434 [Eh]
	 SCS Opposite-Spin Energy  =      -0.1043372986357828 [Eh]
	 SCS Correlation Energy    =      -0.1135266635350261 [Eh]
	 SCS Total Energy          =     -76.0182350802323299 [Eh]
	-----------------------------------------------------------

  -Total Gradient:
     Atom            X                  Y                   Z
    ------   -----------------  -----------------  -----------------
       1        0.000000000000    -0.000000000042     0.197792567913
       2        0.000000000000     0.269164659026    -0.098896283960
       3       -0.000000000000    -0.269164658983    -0.098896283952

*** Psi4 exiting successfully. Buy a developer a beer!
