                               Psi4 1.2a1.dev429

  ==> Input File <==

--------------------------------------------------------------------------
# density-fitted hartree fock energies and gradients with 6-31g
molecule h2o {
0 1
O 0.0000000000 0.0000000000 0.0000000000
H 0.0000000000 0.0000000000 1.2000000000
H 0.0000000000 0.2083778132 -1.1817693036
}

set basis 6-31g

gradient('mp2')
--------------------------------------------------------------------------

    Molecular point group: c2v
  Charge       = 0
  Multiplicity = 1
  Basis Set: 6-31G
    Blend: 6-31G
  Basis Set: (6-31G AUX)
    Blend: CC-PVDZ-JKFIT

    Orbital Energies (a.u.)
    -----------------------

    Doubly Occupied:

       1A1   -20.512255     2A1    -1.190603     1B2    -0.609166
       1B1    -0.430161     3A1    -0.429160

  @DF-RHF Final Energy:   -75.84649661635515

   => Energetics <=

    Nuclear Repulsion Energy =              7.2770288560599532
    One-Electron Energy =                -119.9043603219733569
    Two-Electron Energy =                  36.7808348495582322
    Total Energy =                        -75.8464966163551679
  Basis Set: (6-31G AUX)
    Blend: CC-PVDZ-RI
    Molecular point group: c2v

    Geometry (in Angstrom), charge = 0, multiplicity = 1:

       Center              X                  Y                   Z               Mass
    ------------   -----------------  -----------------  -----------------  -----------------
           O         -0.000000000000     0.000000000000    -0.011704828686    15.994914619560
           H          0.000000000000    -1.195433637703     0.092882062612     1.007825032070
           H         -0.000000000000     1.195433637703     0.092882062612     1.007825032070

  Basis Set: 6-31G
    Blend: 6-31G
  Basis Set: (6-31G AUX)
    Blend: CC-PVDZ-JKFIT
  Basis Set: (6-31G AUX)
    Blend: CC-PVDZ-JKFIT
	 Reference Energy          =     -75.8464966163551537 [Eh]
	 Singles Energy            =      -0.0000000000000000 [Eh]
	 Same-Spin Energy          =      -0.0336038457269741 [Eh]
	 Opposite-Spin Energy      =      -0.1056037899912427 [Eh]
	 Correlation Energy        =      -0.1392076357182168 [Eh]
	 Total Energy              =     -75.9857042520733756 [Eh]

	 ================> DF-SCS-MP2 Energies <==================
	-----------------------------------------------------------
	 SCS Same-Spin Scale       =       0.3333333333333333 [-]
	 SCS Opposite-Spin Scale   =       1.2000000000000000 [-]
	 SCS Same-Spin Energy      =      -0.0112012819089914 [Eh]
	 SCS Opposite-Spin Energy  =      -0.1267245479894913 [Eh]
	 SCS Correlation Energy    =      -0.1379258298984826 [Eh]
	 SCS Total Energy          =     -75.9844224462536317 [Eh]
	-----------------------------------------------------------

  -Total Gradient:
     Atom            X                  Y                   Z
    ------   -----------------  -----------------  -----------------
       1        0.000000000000     0.000000000001     0.020966479285
       2       -0.000000000000    -0.128111180434    -0.010483239642
       3       -0.000000000000     0.128111180433    -0.010483239642

*** Psi4 exiting successfully. Buy a developer a beer!
