                               Psi4 1.2a1.dev429

  ==> Input File <==

--------------------------------------------------------------------------
# density-fitted hartree fock energies and gradients with 6-31g
molecule h20 {
0 1
O 0.0000000000 0.0000000000 0.0000000000
H 0.0000000000 0.0000000000 1.4000000000
H 0.0000000000 1.1276311449 -0.4104241720
}

set basis 6-31g

gradient('hf')
--------------------------------------------------------------------------

    Molecular point group: cs
  Charge       = 0
  Multiplicity = 1
  Basis Set: 6-31G
    Blend: 6-31G
  Basis Set: (6-31G AUX)
    Blend: CC-PVDZ-JKFIT

    Orbital Energies (a.u.)
    -----------------------

    Doubly Occupied:

       1Ap   -20.614891     2Ap    -1.241230     3Ap    -0.572736
       4Ap    -0.494821     1App   -0.493037

  @DF-RHF Final Energy:   -75.85999590201455

   => Energetics <=

    Nuclear Repulsion Energy =              6.7998220707877568
    One-Electron Energy =                -118.4862074288142253
    Two-Electron Energy =                  35.8263894560119311
    Total Energy =                        -75.8599959020145320
    Molecular point group: cs

    Geometry (in Angstrom), charge = 0, multiplicity = 1:

       Center              X                  Y                   Z               Mass
    ------------   -----------------  -----------------  -----------------  -----------------
           O          0.063099348340     0.055374126692     0.000000000000    15.994914619560
           H          0.063099348340    -1.344625873308     0.000000000000     1.007825032070
           H         -1.064531796560     0.465798298692     0.000000000000     1.007825032070

  Basis Set: 6-31G
    Blend: 6-31G
  Basis Set: (6-31G AUX)
    Blend: CC-PVDZ-JKFIT

  -Total Gradient:
     Atom            X                  Y                   Z
    ------   -----------------  -----------------  -----------------
       1        0.098498528974     0.079356350385     0.000000000000
       2        0.010415049027    -0.131928357630     0.000000000000
       3       -0.108913578001     0.052572007245     0.000000000000

*** Psi4 exiting successfully. Buy a developer a beer!
