                               Psi4 1.2a1.dev429

  ==> Input File <==

--------------------------------------------------------------------------
# density-fitted hartree fock energies and gradients with 6-31g
molecule h2o {
0 1
O 0.0000000000 0.0000000000 0.0000000000
H 0.0000000000 0.0000000000 1.4000000000
H 0.0000000000 0.5142300877 -0.6128355545
}

set basis 6-31g

gradient('mp2')
--------------------------------------------------------------------------

    Molecular point group: cs
  Charge       = 0
  Multiplicity = 1
  Basis Set: 6-31G
    Blend: 6-31G
  Basis Set: (6-31G AUX)
    Blend: CC-PVDZ-JKFIT

    Orbital Energies (a.u.)
    -----------------------

    Doubly Occupied:

       1Ap   -20.533653     2Ap    -1.321642     3Ap    -0.677137
       1App   -0.471163     4Ap    -0.466743

  @DF-RHF Final Energy:   -75.83253916550925

   => Energetics <=

    Nuclear Repulsion Energy =              8.5703620889075900
    One-Electron Energy =                -121.8651253850650278
    Two-Electron Energy =                  37.4622241306482096
    Total Energy =                        -75.8325391655092318
  Basis Set: (6-31G AUX)
    Blend: CC-PVDZ-RI
    Molecular point group: cs

    Geometry (in Angstrom), charge = 0, multiplicity = 1:

       Center              X                  Y                   Z               Mass
    ------------   -----------------  -----------------  -----------------  -----------------
           O          0.028774997549     0.044047704581     0.000000000000    15.994914619560
           H          0.028774997549    -1.355952295419     0.000000000000     1.007825032070
           H         -0.485455090151     0.656883259081     0.000000000000     1.007825032070

  Basis Set: 6-31G
    Blend: 6-31G
  Basis Set: (6-31G AUX)
    Blend: CC-PVDZ-JKFIT
  Basis Set: (6-31G AUX)
    Blend: CC-PVDZ-JKFIT
	 Reference Energy          =     -75.8325391655092460 [Eh]
	 Singles Energy            =      -0.0000000000000000 [Eh]
	 Same-Spin Energy          =      -0.0319537131777684 [Eh]
	 Opposite-Spin Energy      =      -0.1058667601201006 [Eh]
	 Correlation Energy        =      -0.1378204732978691 [Eh]
	 Total Energy              =     -75.9703596388071105 [Eh]

	 ================> DF-SCS-MP2 Energies <==================
	-----------------------------------------------------------
	 SCS Same-Spin Scale       =       0.3333333333333333 [-]
	 SCS Opposite-Spin Scale   =       1.2000000000000000 [-]
	 SCS Same-Spin Energy      =      -0.0106512377259228 [Eh]
	 SCS Opposite-Spin Energy  =      -0.1270401121441208 [Eh]
	 SCS Correlation Energy    =      -0.1376913498700436 [Eh]
	 SCS Total Energy          =     -75.9702305153792850 [Eh]
	-----------------------------------------------------------

  -Total Gradient:
     Atom            X                  Y                   Z
    ------   -----------------  -----------------  -----------------
       1       -0.272884316840     0.338122368125     0.000000000000
       2        0.028637511488    -0.125006463855    -0.000000000000
       3        0.244246805352    -0.213115904270    -0.000000000000

*** Psi4 exiting successfully. Buy a developer a beer!
