                               Psi4 1.2a1.dev429

  ==> Input File <==

--------------------------------------------------------------------------
# density-fitted hartree fock energies and gradients with 6-31g
molecule h2o {
0 1
O 0.0000000000 0.0000000000 0.0000000000
H 0.0000000000 0.0000000000 1.4000000000
H 0.0000000000 0.4104241720 -1.1276311449
}

set basis 6-31g

gradient('mp2')
--------------------------------------------------------------------------

    Molecular point group: cs
  Charge       = 0
  Multiplicity = 1
  Basis Set: 6-31G
    Blend: 6-31G
  Basis Set: (6-31G AUX)
    Blend: CC-PVDZ-JKFIT

    Orbital Energies (a.u.)
    -----------------------

    Doubly Occupied:

       1Ap   -20.533312     2Ap    -1.181423     3Ap    -0.567678
       1App   -0.435354     4Ap    -0.426227

  @DF-RHF Final Energy:   -75.80211892372783

   => Energetics <=

    Nuclear Repulsion Energy =              6.7583682819480835
    One-Electron Energy =                -118.8329878730115183
    Two-Electron Energy =                  36.2725006673356134
    Total Energy =                        -75.8021189237278179
  Basis Set: (6-31G AUX)
    Blend: CC-PVDZ-RI
    Molecular point group: cs

    Geometry (in Angstrom), charge = 0, multiplicity = 1:

       Center              X                  Y                   Z               Mass
    ------------   -----------------  -----------------  -----------------  -----------------
           O          0.022966284599     0.015241062951     0.000000000000    15.994914619560
           H          0.022966284599    -1.384758937049     0.000000000000     1.007825032070
           H         -0.387457887401     1.142872207851     0.000000000000     1.007825032070

  Basis Set: 6-31G
    Blend: 6-31G
  Basis Set: (6-31G AUX)
    Blend: CC-PVDZ-JKFIT
  Basis Set: (6-31G AUX)
    Blend: CC-PVDZ-JKFIT
	 Reference Energy          =     -75.8021189237278321 [Eh]
	 Singles Energy            =      -0.0000000000000000 [Eh]
	 Same-Spin Energy          =      -0.0350540586765753 [Eh]
	 Opposite-Spin Energy      =      -0.1142201731167927 [Eh]
	 Correlation Energy        =      -0.1492742317933680 [Eh]
	 Total Energy              =     -75.9513931555212025 [Eh]

	 ================> DF-SCS-MP2 Energies <==================
	-----------------------------------------------------------
	 SCS Same-Spin Scale       =       0.3333333333333333 [-]
	 SCS Opposite-Spin Scale   =       1.2000000000000000 [-]
	 SCS Same-Spin Energy      =      -0.0116846862255251 [Eh]
	 SCS Opposite-Spin Energy  =      -0.1370642077401513 [Eh]
	 SCS Correlation Energy    =      -0.1487488939656764 [Eh]
	 SCS Total Energy          =     -75.9508678176935064 [Eh]
	-----------------------------------------------------------

  -Total Gradient:
     Atom            X                  Y                   Z
    ------   -----------------  -----------------  -----------------
       1       -0.041420060939     0.000978108523    -0.000000000000
       2        0.037276821545    -0.116749810750     0.000000000000
       3        0.004143239394     0.115771702227    -0.000000000000

*** Psi4 exiting successfully. Buy a developer a beer!
