                               Psi4 1.2a1.dev429

  ==> Input File <==

--------------------------------------------------------------------------
# density-fitted hartree fock energies and gradients with 6-31g
molecule h2o {
0 1
O 0.0000000000 0.0000000000 0.0000000000
H 0.0000000000 0.0000000000 1.4000000000
H 0.0000000000 0.2604722665 -1.4772116295
}

set basis 6-31g

gradient('mp2')
--------------------------------------------------------------------------

    Molecular point group: cs
  Charge       = 0
  Multiplicity = 1
  Basis Set: 6-31G
    Blend: 6-31G
  Basis Set: (6-31G AUX)
    Blend: CC-PVDZ-JKFIT

    Orbital Energies (a.u.)
    -----------------------

    Doubly Occupied:

       1Ap   -20.523955     2Ap    -1.140440     3Ap    -0.500493
       1App   -0.417126     4Ap    -0.409152

  @DF-RHF Final Energy:   -75.71640763970947

   => Energetics <=

    Nuclear Repulsion Energy =              6.0293192996520855
    One-Electron Energy =                -117.5091201490207879
    Two-Electron Energy =                  35.7633932096592417
    Total Energy =                        -75.7164076397094590
  Basis Set: (6-31G AUX)
    Blend: CC-PVDZ-RI
    Molecular point group: cs

    Geometry (in Angstrom), charge = 0, multiplicity = 1:

       Center              X                  Y                   Z               Mass
    ------------   -----------------  -----------------  -----------------  -----------------
           O          0.014575360348    -0.004320564865     0.000000000000    15.994914619560
           H          0.014575360348    -1.404320564865     0.000000000000     1.007825032070
           H         -0.245896906152     1.472891064635     0.000000000000     1.007825032070

  Basis Set: 6-31G
    Blend: 6-31G
  Basis Set: (6-31G AUX)
    Blend: CC-PVDZ-JKFIT
  Basis Set: (6-31G AUX)
    Blend: CC-PVDZ-JKFIT
	 Reference Energy          =     -75.7164076397094732 [Eh]
	 Singles Energy            =      -0.0000000000000000 [Eh]
	 Same-Spin Energy          =      -0.0354733407518878 [Eh]
	 Opposite-Spin Energy      =      -0.1181267420097525 [Eh]
	 Correlation Energy        =      -0.1536000827616404 [Eh]
	 Total Energy              =     -75.8700077224711151 [Eh]

	 ================> DF-SCS-MP2 Energies <==================
	-----------------------------------------------------------
	 SCS Same-Spin Scale       =       0.3333333333333333 [-]
	 SCS Opposite-Spin Scale   =       1.2000000000000000 [-]
	 SCS Same-Spin Energy      =      -0.0118244469172959 [Eh]
	 SCS Opposite-Spin Energy  =      -0.1417520904117030 [Eh]
	 SCS Correlation Energy    =      -0.1535765373289990 [Eh]
	 SCS Total Energy          =     -75.8699841770384751 [Eh]
	-----------------------------------------------------------

  -Total Gradient:
     Atom            X                  Y                   Z
    ------   -----------------  -----------------  -----------------
       1       -0.056911086833    -0.000051148623     0.000000000000
       2        0.039300013780    -0.111303267995    -0.000000000000
       3        0.017611073053     0.111354416618    -0.000000000000

*** Psi4 exiting successfully. Buy a developer a beer!
