                               Psi4 1.2a1.dev429

  ==> Input File <==

--------------------------------------------------------------------------
# density-fitted hartree fock energies and gradients with 6-31g
molecule h20 {
0 1
O 0.0000000000 0.0000000000 0.0000000000
O 0.0000000000 0.0000000000 1.4010101010
}

set basis 6-31g

gradient('hf')
--------------------------------------------------------------------------

    Molecular point group: d2h
  Charge       = 0
  Multiplicity = 1
  Basis Set: 6-31G
    Blend: 6-31G
  Basis Set: (6-31G AUX)
    Blend: CC-PVDZ-JKFIT

    Orbital Energies (a.u.)
    -----------------------

    Doubly Occupied:

       1Ag   -20.786510     1B1u  -20.786043     2Ag    -1.540448
       2B1u   -1.168574     1B2u   -0.726521     3Ag    -0.672148
       1B3u   -0.582687     1B3g   -0.543110

  @DF-RHF Final Energy:  -149.41564687580188

   => Energetics <=

    Nuclear Repulsion Energy =             24.1735168972632515
    One-Electron Energy =                -253.5662506833633358
    Two-Electron Energy =                  79.9770869102981834
    Total Energy =                       -149.4156468758018832
    Molecular point group: d2h

    Geometry (in Angstrom), charge = 0, multiplicity = 1:

       Center              X                  Y                   Z               Mass
    ------------   -----------------  -----------------  -----------------  -----------------
           O          0.000000000000     0.000000000000    -0.700505050500    15.994914619560
           O          0.000000000000     0.000000000000     0.700505050500    15.994914619560

  Basis Set: 6-31G
    Blend: 6-31G
  Basis Set: (6-31G AUX)
    Blend: CC-PVDZ-JKFIT

  -Total Gradient:
     Atom            X                  Y                   Z
    ------   -----------------  -----------------  -----------------
       1        0.000000000000     0.000000000000    -0.187148052157
       2       -0.000000000000    -0.000000000000     0.187148052157

*** Psi4 exiting successfully. Buy a developer a beer!
