                               Psi4 1.2a1.dev429

  ==> Input File <==

--------------------------------------------------------------------------
# density-fitted hartree fock energies and gradients with 6-31g
molecule o2 {
0 3
O 0.0000000000 0.0000000000 0.0000000000
O 0.0000000000 0.0000000000 1.4010101010
}

set basis 6-31g
set reference rohf

gradient('scf')
--------------------------------------------------------------------------

    Molecular point group: d2h
  Charge       = 0
  Multiplicity = 3
  Basis Set: 6-31G
    Blend: 6-31G
  Basis Set: (6-31G AUX)
    Blend: CC-PVDZ-JKFIT

    Orbital Energies (a.u.)
    -----------------------

    Doubly Occupied:

       1Ag   -20.778298     1B1u  -20.777835     2Ag    -1.536549
       2B1u   -1.164913     3Ag    -0.668435     1B3u   -0.650229
       1B2u   -0.650229

    Singly Occupied:

       1B2g   -0.291620     1B3g   -0.291620

  @DF-ROHF Final Energy:  -149.47923695857799

   => Energetics <=

    Nuclear Repulsion Energy =             24.1735168972632515
    One-Electron Energy =                -253.6422380417680813
    Two-Electron Energy =                  79.9894841859268126
    Total Energy =                       -149.4792369585780136
    Molecular point group: d2h

    Geometry (in Angstrom), charge = 0, multiplicity = 3:

       Center              X                  Y                   Z               Mass
    ------------   -----------------  -----------------  -----------------  -----------------
           O          0.000000000000     0.000000000000    -0.700505050500    15.994914619560
           O          0.000000000000     0.000000000000     0.700505050500    15.994914619560

  Basis Set: 6-31G
    Blend: 6-31G
  Basis Set: (6-31G AUX)
    Blend: CC-PVDZ-JKFIT

  -Total Gradient:
     Atom            X                  Y                   Z
    ------   -----------------  -----------------  -----------------
       1        0.000000000000     0.000000000000    -0.194544826109
       2        0.000000000000    -0.000000000000     0.194544826109

*** Psi4 exiting successfully. Buy a developer a beer!
