                               Psi4 1.2a1.dev429

  ==> Input File <==

--------------------------------------------------------------------------
# density-fitted hartree fock energies and gradients with 6-31g
molecule h2o {
0 1
O 0.0000000000 0.0000000000 0.0000000000
H 0.0000000000 0.0000000000 1.2000000000
H 0.0000000000 1.4000000000 0.0000000000
}

set basis 6-31g

gradient('mp2')
--------------------------------------------------------------------------

    Molecular point group: cs
  Charge       = 0
  Multiplicity = 1
  Basis Set: 6-31G
    Blend: 6-31G
  Basis Set: (6-31G AUX)
    Blend: CC-PVDZ-JKFIT

    Orbital Energies (a.u.)
    -----------------------

    Doubly Occupied:

       1Ap   -20.631744     2Ap    -1.255909     3Ap    -0.566157
       4Ap    -0.516461     1App   -0.505451

  @DF-RHF Final Energy:   -75.86087410775852

   => Energetics <=

    Nuclear Repulsion Energy =              6.8387044559546641
    One-Electron Energy =                -118.4477117613623420
    Two-Electron Energy =                  35.7481331976491674
    Total Energy =                        -75.8608741077585051
  Basis Set: (6-31G AUX)
    Blend: CC-PVDZ-RI
    Molecular point group: cs

    Geometry (in Angstrom), charge = 0, multiplicity = 1:

       Center              X                  Y                   Z               Mass
    ------------   -----------------  -----------------  -----------------  -----------------
           O          0.078340411291     0.067148923963     0.000000000000    15.994914619560
           H          0.078340411291    -1.132851076037     0.000000000000     1.007825032070
           H         -1.321659588709     0.067148923963     0.000000000000     1.007825032070

  Basis Set: 6-31G
    Blend: 6-31G
  Basis Set: (6-31G AUX)
    Blend: CC-PVDZ-JKFIT
  Basis Set: (6-31G AUX)
    Blend: CC-PVDZ-JKFIT
	 Reference Energy          =     -75.8608741077585194 [Eh]
	 Singles Energy            =      -0.0000000000000000 [Eh]
	 Same-Spin Energy          =      -0.0373528953260468 [Eh]
	 Opposite-Spin Energy      =      -0.1275632792078520 [Eh]
	 Correlation Energy        =      -0.1649161745338989 [Eh]
	 Total Energy              =     -76.0257902822924194 [Eh]

	 ================> DF-SCS-MP2 Energies <==================
	-----------------------------------------------------------
	 SCS Same-Spin Scale       =       0.3333333333333333 [-]
	 SCS Opposite-Spin Scale   =       1.2000000000000000 [-]
	 SCS Same-Spin Energy      =      -0.0124509651086823 [Eh]
	 SCS Opposite-Spin Energy  =      -0.1530759350494224 [Eh]
	 SCS Correlation Energy    =      -0.1655269001581047 [Eh]
	 SCS Total Energy          =     -76.0264010079166184 [Eh]
	-----------------------------------------------------------

  -Total Gradient:
     Atom            X                  Y                   Z
    ------   -----------------  -----------------  -----------------
       1        0.102404634313     0.088413330387    -0.000000000000
       2       -0.004930806387    -0.084186927676     0.000000000000
       3       -0.097473827926    -0.004226402711     0.000000000000

*** Psi4 exiting successfully. Buy a developer a beer!
