                               Psi4 1.2a1.dev429

  ==> Input File <==

--------------------------------------------------------------------------
# density-fitted hartree fock energies and gradients with 6-31g
molecule h20 {
0 1
O 0.0000000000 0.0000000000 0.0000000000
O 0.0000000000 0.0000000000 1.1818181818
}

set basis 6-31g

gradient('hf')
--------------------------------------------------------------------------

    Molecular point group: d2h
  Charge       = 0
  Multiplicity = 1
  Basis Set: 6-31G
    Blend: 6-31G
  Basis Set: (6-31G AUX)
    Blend: CC-PVDZ-JKFIT

    Orbital Energies (a.u.)
    -----------------------

    Doubly Occupied:

       1Ag   -20.753270     1B1u  -20.752332     2Ag    -1.720940
       2B1u   -1.095508     1B3u   -0.793117     3Ag    -0.735421
       1B2u   -0.669519     1B2g   -0.478020

  @DF-RHF Final Energy:  -149.46134854620306

   => Energetics <=

    Nuclear Repulsion Energy =             28.6569811425454901
    One-Electron Energy =                -262.2404049429721340
    Two-Electron Energy =                  84.1220752542236028
    Total Energy =                       -149.4613485462030553
    Molecular point group: d2h

    Geometry (in Angstrom), charge = 0, multiplicity = 1:

       Center              X                  Y                   Z               Mass
    ------------   -----------------  -----------------  -----------------  -----------------
           O          0.000000000000     0.000000000000    -0.590909090900    15.994914619560
           O          0.000000000000     0.000000000000     0.590909090900    15.994914619560

  Basis Set: 6-31G
    Blend: 6-31G
  Basis Set: (6-31G AUX)
    Blend: CC-PVDZ-JKFIT

  -Total Gradient:
     Atom            X                  Y                   Z
    ------   -----------------  -----------------  -----------------
       1       -0.000000000000     0.000000000000     0.021371268517
       2        0.000000000000     0.000000000000    -0.021371268517

*** Psi4 exiting successfully. Buy a developer a beer!
