                               Psi4 1.2a1.dev429

  ==> Input File <==

--------------------------------------------------------------------------
# density-fitted hartree fock energies and gradients with 6-31g
molecule h2o {
0 1
O 0.0000000000 0.0000000000 0.0000000000
H 0.0000000000 0.0000000000 1.2000000000
H 0.0000000000 1.1258330249 -0.6500000000
}

set basis 6-31g

gradient('mp2')
--------------------------------------------------------------------------

    Molecular point group: cs
  Charge       = 0
  Multiplicity = 1
  Basis Set: 6-31G
    Blend: 6-31G
  Basis Set: (6-31G AUX)
    Blend: CC-PVDZ-JKFIT

    Orbital Energies (a.u.)
    -----------------------

    Doubly Occupied:

       1Ap   -20.597039     2Ap    -1.239176     3Ap    -0.589947
       4Ap    -0.490540     1App   -0.484348

  @DF-RHF Final Energy:   -75.87850698365096

   => Energetics <=

    Nuclear Repulsion Energy =              7.0286745184887858
    One-Electron Energy =                -119.0122633639837773
    Two-Electron Energy =                  36.1050818618440132
    Total Energy =                        -75.8785069836509791
  Basis Set: (6-31G AUX)
    Blend: CC-PVDZ-RI
    Molecular point group: cs

    Geometry (in Angstrom), charge = 0, multiplicity = 1:

       Center              X                  Y                   Z               Mass
    ------------   -----------------  -----------------  -----------------  -----------------
           O          0.062998730154     0.030776590150     0.000000000000    15.994914619560
           H          0.062998730154    -1.169223409850     0.000000000000     1.007825032070
           H         -1.062834294746     0.680776590150     0.000000000000     1.007825032070

  Basis Set: 6-31G
    Blend: 6-31G
  Basis Set: (6-31G AUX)
    Blend: CC-PVDZ-JKFIT
  Basis Set: (6-31G AUX)
    Blend: CC-PVDZ-JKFIT
	 Reference Energy          =     -75.8785069836509649 [Eh]
	 Singles Energy            =      -0.0000000000000000 [Eh]
	 Same-Spin Energy          =      -0.0353418281472386 [Eh]
	 Opposite-Spin Energy      =      -0.1189838285913955 [Eh]
	 Correlation Energy        =      -0.1543256567386340 [Eh]
	 Total Energy              =     -76.0328326403896000 [Eh]

	 ================> DF-SCS-MP2 Energies <==================
	-----------------------------------------------------------
	 SCS Same-Spin Scale       =       0.3333333333333333 [-]
	 SCS Opposite-Spin Scale   =       1.2000000000000000 [-]
	 SCS Same-Spin Energy      =      -0.0117806093824129 [Eh]
	 SCS Opposite-Spin Energy  =      -0.1427805943096746 [Eh]
	 SCS Correlation Energy    =      -0.1545612036920874 [Eh]
	 SCS Total Energy          =     -76.0330681873430478 [Eh]
	-----------------------------------------------------------

  -Total Gradient:
     Atom            X                  Y                   Z
    ------   -----------------  -----------------  -----------------
       1        0.056576228514     0.023348527888     0.000000000000
       2        0.024962485647    -0.097031872910    -0.000000000000
       3       -0.081538714161     0.073683345022    -0.000000000000

*** Psi4 exiting successfully. Buy a developer a beer!
