                               Psi4 1.2.1 release

  ==> Input File <==

--------------------------------------------------------------------------
# density fitted hartree fock
molecule h2o {
0 1
H 0.0000000000 0.0000000000 1.2000000000
H 0.0000000000 0.9055554621 -0.2426428548
O 0.0000000000 0.0000000000 0.0000000000
}

set basis 6-31g
energy('hf')

--------------------------------------------------------------------------

    Molecular point group: cs

    Geometry (in Angstrom), charge = 0, multiplicity = 1:

       Center              X                  Y                   Z               Mass
    ------------   -----------------  -----------------  -----------------  -----------------
         H            0.050672562391    -1.146428748209     0.000000000000     1.007825032070
         H           -0.854882899709     0.296214106591     0.000000000000     1.007825032070
         O            0.050672562391     0.053571251791     0.000000000000    15.994914619560

  Charge       = 0
  Multiplicity = 1
  Basis Set: 6-31G
    Blend: 6-31G
  Basis Set: (6-31G AUX)
    Blend: CC-PVDZ-JKFIT

    Orbital Energies [Eh]
    ---------------------

    Doubly Occupied:

       1Ap   -20.579596     2Ap    -1.318434     3Ap    -0.660766
       4Ap    -0.536954     1App   -0.497842

  @DF-RHF Final Energy:   -75.94649012829120

   => Energetics <=

    Nuclear Repulsion Energy =              8.3541702265104352
    One-Electron Energy =                -121.4141290782104363
    Two-Electron Energy =                  37.1134687234088005
    Total Energy =                        -75.9464901282912024

  Dipole Moment: [D]
     X:    -2.0515      Y:    -1.6537      Z:     0.0000     Total:     2.6350

*** Psi4 exiting successfully. Buy a developer a beer!
