                               Psi4 1.3.1 release

  ==> Input File <==

--------------------------------------------------------------------------
# density fitted hartree fock
molecule h2o {
0 1
H 0.0000000000 0.0000000000 1.1000000000
H 0.0000000000 0.9555728058 -0.2947551744
O 0.0000000000 0.0000000000 0.0000000000
}

set basis 6-31g
energy('hf')

--------------------------------------------------------------------------

    Molecular point group: cs

    Geometry (in Angstrom), charge = 0, multiplicity = 1:

       Center              X                  Y                   Z               Mass
    ------------   -----------------  -----------------  -----------------  -----------------
         H            0.053471404739    -1.054940563689     0.000000000000     1.007825032230
         H           -0.902101401061     0.339814610711     0.000000000000     1.007825032230
         O            0.053471404739     0.045059436311     0.000000000000    15.994914619570

  Charge       = 0
  Multiplicity = 1
  Basis Set: 6-31G
    Blend: 6-31G
  Basis Set: (6-31G AUX)
    Blend: CC-PVDZ-JKFIT

    Orbital Energies [Eh]
    ---------------------

    Doubly Occupied:

       1Ap   -20.576027     2Ap    -1.311995     3Ap    -0.666081
       4Ap    -0.541051     1App   -0.496089

  @DF-RHF Final Energy:   -75.96644117334877

   => Energetics <=

    Nuclear Repulsion Energy =              8.3949724648313868
    One-Electron Energy =                -121.5403312681874581
    Two-Electron Energy =                  37.1789176300072981
    Total Energy =                        -75.9664411733487839

  Dipole Moment: [D]
     X:    -2.0771      Y:    -1.5752      Z:     0.0000     Total:     2.6068

*** Psi4 exiting successfully. Buy a developer a beer!
