                               Psi4 1.2a1.dev429

  ==> Input File <==

--------------------------------------------------------------------------
# density-fitted hartree fock energies and gradients with 6-31g
molecule h20 {
0 1
O 0.0000000000 0.0000000000 0.0000000000
H 0.0000000000 0.0000000000 0.7000000000
H 0.0000000000 0.7794228634 -0.4500000000
}

set basis 6-31g

gradient('hf')
--------------------------------------------------------------------------

    Molecular point group: cs
  Charge       = 0
  Multiplicity = 1
  Basis Set: 6-31G
    Blend: 6-31G
  Basis Set: (6-31G AUX)
    Blend: CC-PVDZ-JKFIT

    Orbital Energies (a.u.)
    -----------------------

    Doubly Occupied:

       1Ap   -20.522065     2Ap    -1.452001     3Ap    -0.840185
       4Ap    -0.554750     1App   -0.510195

  @DF-RHF Final Energy:   -75.85718136050291

   => Energetics <=

    Nuclear Repulsion Energy =             11.1324470261401114
    One-Electron Energy =                -126.2208638073543483
    Two-Electron Energy =                  39.2312354207113430
    Total Energy =                        -75.8571813605028922
    Molecular point group: cs

    Geometry (in Angstrom), charge = 0, multiplicity = 1:

       Center              X                  Y                   Z               Mass
    ------------   -----------------  -----------------  -----------------  -----------------
           O          0.043614505491     0.013989359159     0.000000000000    15.994914619560
           H          0.043614505491    -0.686010640841     0.000000000000     1.007825032070
           H         -0.735808357909     0.463989359159     0.000000000000     1.007825032070

  Basis Set: 6-31G
    Blend: 6-31G
  Basis Set: (6-31G AUX)
    Blend: CC-PVDZ-JKFIT

  -Total Gradient:
     Atom            X                  Y                   Z
    ------   -----------------  -----------------  -----------------
       1       -0.049198067772    -0.704169063620     0.000000000000
       2        0.002197681500     0.729331010915     0.000000000000
       3        0.047000386271    -0.025161947295     0.000000000000

*** Psi4 exiting successfully. Buy a developer a beer!
