                               Psi4 1.2a1.dev429

  ==> Input File <==

--------------------------------------------------------------------------
# density-fitted hartree fock energies and gradients with 6-31g
molecule o2 {
0 3
O 0.0000000000 0.0000000000 0.0000000000
O 0.0000000000 0.0000000000 1.2428571429
}

set basis 6-31g
set reference rohf

energy('scf')
--------------------------------------------------------------------------

    Molecular point group: d2h

    Geometry (in Angstrom), charge = 0, multiplicity = 3:

       Center              X                  Y                   Z               Mass
    ------------   -----------------  -----------------  -----------------  -----------------
           O          0.000000000000     0.000000000000    -0.621428571450    15.994914619560
           O          0.000000000000     0.000000000000     0.621428571450    15.994914619560

  Charge       = 0
  Multiplicity = 3
  Basis Set: 6-31G
    Blend: 6-31G
  Basis Set: (6-31G AUX)
    Blend: CC-PVDZ-JKFIT

    Orbital Energies (a.u.)
    -----------------------

    Doubly Occupied:

       1Ag   -20.754726     1B1u  -20.753999     2Ag    -1.656925
       2B1u   -1.114054     3Ag    -0.713501     1B3u   -0.701901
       1B2u   -0.701901

    Singly Occupied:

       1B2g   -0.242907     1B3g   -0.242907

  @DF-ROHF Final Energy:  -149.52387497882643

   => Energetics <=

    Nuclear Repulsion Energy =             27.2495849931201306
    One-Electron Energy =                -259.6236306496302291
    Two-Electron Energy =                  82.8501706776836784
    Total Energy =                       -149.5238749788264272
*** Psi4 exiting successfully. Buy a developer a beer!
