                               Psi4 1.2a1.dev429

  ==> Input File <==

--------------------------------------------------------------------------
# density-fitted hartree fock energies and gradients with 6-31g
molecule h20 {
0 1
O 0.0000000000 0.0000000000 0.0000000000
O 0.0000000000 0.0000000000 1.0191919192
}

set basis 6-31g

gradient('hf')
--------------------------------------------------------------------------

    Molecular point group: d2h
  Charge       = 0
  Multiplicity = 1
  Basis Set: 6-31G
    Blend: 6-31G
  Basis Set: (6-31G AUX)
    Blend: CC-PVDZ-JKFIT

    Orbital Energies (a.u.)
    -----------------------

    Doubly Occupied:

       1Ag   -20.726596     1B1u  -20.724321     2Ag    -1.916370
       2B1u   -1.031470     1B2u   -0.870916     3Ag    -0.782324
       1B3u   -0.764447     1B3g   -0.397782

  @DF-RHF Final Energy:  -149.38101173708341

   => Energetics <=

    Nuclear Repulsion Energy =             33.2296015222959014
    One-Electron Energy =                -270.7927775448434318
    Two-Electron Energy =                  88.1821642854641254
    Total Energy =                       -149.3810117370834121
    Molecular point group: d2h

    Geometry (in Angstrom), charge = 0, multiplicity = 1:

       Center              X                  Y                   Z               Mass
    ------------   -----------------  -----------------  -----------------  -----------------
           O          0.000000000000     0.000000000000    -0.509595959600    15.994914619560
           O          0.000000000000     0.000000000000     0.509595959600    15.994914619560

  Basis Set: 6-31G
    Blend: 6-31G
  Basis Set: (6-31G AUX)
    Blend: CC-PVDZ-JKFIT

  -Total Gradient:
     Atom            X                  Y                   Z
    ------   -----------------  -----------------  -----------------
       1       -0.000000000000     0.000000000000     0.609393537842
       2        0.000000000000     0.000000000000    -0.609393537842

*** Psi4 exiting successfully. Buy a developer a beer!
