                               Psi4 1.2a1.dev429

  ==> Input File <==

--------------------------------------------------------------------------
# density-fitted hartree fock energies and gradients with 6-31g
molecule o2 {
0 3
O 0.0000000000 0.0000000000 0.0000000000
O 0.0000000000 0.0000000000 0.8777777778
}

set basis 6-31g
set reference rohf

gradient('scf')
--------------------------------------------------------------------------

    Molecular point group: d2h
  Charge       = 0
  Multiplicity = 3
  Basis Set: 6-31G
    Blend: 6-31G
  Basis Set: (6-31G AUX)
    Blend: CC-PVDZ-JKFIT

    Orbital Energies (a.u.)
    -----------------------

    Doubly Occupied:

       1Ag   -20.708595     1B1u  -20.701687     2Ag    -2.116489
       2B1u   -0.970367     1B3u   -0.924716     1B2u   -0.924716
       3Ag    -0.817669

    Singly Occupied:

       1B2g   -0.034948     1B3g   -0.034948

  @DF-ROHF Final Energy:  -149.13076346397878

   => Energetics <=

    Nuclear Repulsion Energy =             38.5830471063447433
    One-Electron Energy =                -280.3694948043849422
    Two-Electron Energy =                  92.6556842340614253
    Total Energy =                       -149.1307634639787807
    Molecular point group: d2h

    Geometry (in Angstrom), charge = 0, multiplicity = 3:

       Center              X                  Y                   Z               Mass
    ------------   -----------------  -----------------  -----------------  -----------------
           O          0.000000000000     0.000000000000    -0.438888888900    15.994914619560
           O          0.000000000000     0.000000000000     0.438888888900    15.994914619560

  Basis Set: 6-31G
    Blend: 6-31G
  Basis Set: (6-31G AUX)
    Blend: CC-PVDZ-JKFIT

  -Total Gradient:
     Atom            X                  Y                   Z
    ------   -----------------  -----------------  -----------------
       1        0.000000000000    -0.000000000000     1.990913845750
       2       -0.000000000000     0.000000000000    -1.990913845750

*** Psi4 exiting successfully. Buy a developer a beer!
