                               Psi4 1.2a1.dev429

  ==> Input File <==

--------------------------------------------------------------------------
# density-fitted hartree fock energies and gradients with 6-31g
molecule h20 {
0 1
O 0.0000000000 0.0000000000 0.0000000000
O 0.0000000000 0.0000000000 0.8777777778
}

set basis 6-31g

gradient('hf')
--------------------------------------------------------------------------

    Molecular point group: d2h
  Charge       = 0
  Multiplicity = 1
  Basis Set: 6-31G
    Blend: 6-31G
  Basis Set: (6-31G AUX)
    Blend: CC-PVDZ-JKFIT

    Orbital Energies (a.u.)
    -----------------------

    Doubly Occupied:

       1Ag   -20.721518     1B1u  -20.714581     2Ag    -2.125138
       2B1u   -0.975753     1B3u   -0.974979     1B2u   -0.886670
       3Ag    -0.823532     1B2g   -0.297235

  @DF-RHF Final Energy:  -149.06121589629464

   => Energetics <=

    Nuclear Repulsion Energy =             38.5830471063447433
    One-Electron Energy =                -280.2497135956361376
    Two-Electron Energy =                  92.6054505929967462
    Total Energy =                       -149.0612158962946410
    Molecular point group: d2h

    Geometry (in Angstrom), charge = 0, multiplicity = 1:

       Center              X                  Y                   Z               Mass
    ------------   -----------------  -----------------  -----------------  -----------------
           O          0.000000000000     0.000000000000    -0.438888888900    15.994914619560
           O          0.000000000000     0.000000000000     0.438888888900    15.994914619560

  Basis Set: 6-31G
    Blend: 6-31G
  Basis Set: (6-31G AUX)
    Blend: CC-PVDZ-JKFIT

  -Total Gradient:
     Atom            X                  Y                   Z
    ------   -----------------  -----------------  -----------------
       1        0.000000000000     0.000000000000     1.988455125579
       2       -0.000000000000     0.000000000000    -1.988455125579

*** Psi4 exiting successfully. Buy a developer a beer!
