                               Psi4 1.2a1.dev429

  ==> Input File <==

--------------------------------------------------------------------------
# density-fitted hartree fock energies and gradients with 6-31g
molecule h2o {
0 1
O 0.0000000000 0.0000000000 0.0000000000
H 0.0000000000 0.0000000000 0.8000000000
H 0.0000000000 0.0000000000 -0.9000000000
}

set basis 6-31g

gradient('mp2')
--------------------------------------------------------------------------

    Molecular point group: c2v
  Charge       = 0
  Multiplicity = 1
  Basis Set: 6-31G
    Blend: 6-31G
  Basis Set: (6-31G AUX)
    Blend: CC-PVDZ-JKFIT

    Orbital Energies (a.u.)
    -----------------------

    Doubly Occupied:

       1A1   -20.499048     2A1    -1.358669     3A1    -0.853713
       1B2    -0.486504     1B1    -0.486504

  @DF-RHF Final Energy:   -75.91734197245236

   => Energetics <=

    Nuclear Repulsion Energy =             10.3068502065241834
    One-Electron Energy =                -125.0795085030765534
    Two-Electron Energy =                  38.8553163241000021
    Total Energy =                        -75.9173419724523626
  Basis Set: (6-31G AUX)
    Blend: CC-PVDZ-RI
    Molecular point group: c2v

    Geometry (in Angstrom), charge = 0, multiplicity = 1:

       Center              X                  Y                   Z               Mass
    ------------   -----------------  -----------------  -----------------  -----------------
           O          0.000000000000     0.000000000000     0.005595743664    15.994914619560
           H          0.000000000000     0.000000000000     0.805595743664     1.007825032070
           H          0.000000000000     0.000000000000    -0.894404256336     1.007825032070

  Basis Set: 6-31G
    Blend: 6-31G
  Basis Set: (6-31G AUX)
    Blend: CC-PVDZ-JKFIT
  Basis Set: (6-31G AUX)
    Blend: CC-PVDZ-JKFIT
	 Reference Energy          =     -75.9173419724523626 [Eh]
	 Singles Energy            =      -0.0000000000000000 [Eh]
	 Same-Spin Energy          =      -0.0282677254824677 [Eh]
	 Opposite-Spin Energy      =      -0.0893908888792109 [Eh]
	 Correlation Energy        =      -0.1176586143616786 [Eh]
	 Total Energy              =     -76.0350005868140357 [Eh]

	 ================> DF-SCS-MP2 Energies <==================
	-----------------------------------------------------------
	 SCS Same-Spin Scale       =       0.3333333333333333 [-]
	 SCS Opposite-Spin Scale   =       1.2000000000000000 [-]
	 SCS Same-Spin Energy      =      -0.0094225751608226 [Eh]
	 SCS Opposite-Spin Energy  =      -0.1072690666550531 [Eh]
	 SCS Correlation Energy    =      -0.1166916418158757 [Eh]
	 SCS Total Energy          =     -76.0340336142682389 [Eh]
	-----------------------------------------------------------

  -Total Gradient:
     Atom            X                  Y                   Z
    ------   -----------------  -----------------  -----------------
       1        0.000000000000     0.000000000000     0.233160970654
       2       -0.000000000000    -0.000000000000    -0.281812691873
       3        0.000000000000    -0.000000000000     0.048651721220

*** Psi4 exiting successfully. Buy a developer a beer!
