                               Psi4 1.3.1 release

  ==> Input File <==

--------------------------------------------------------------------------
# density fitted MP2
molecule h2o {
0 1
H 0.0000000000 0.0000000000 1.0250000000
H 0.0000000000 0.8118988160 -0.4687500000
O 0.0000000000 0.0000000000 0.0000000000
}

set basis 6-31g
energy('mp2')

--------------------------------------------------------------------------

    Molecular point group: cs

    Geometry (in Angstrom), charge = 0, multiplicity = 1:

       Center              X                  Y                   Z               Mass
    ------------   -----------------  -----------------  -----------------  -----------------
         H            0.045431776558    -0.993873675867     0.000000000000     1.007825032230
         H           -0.766467039442     0.499876324133     0.000000000000     1.007825032230
         O            0.045431776558     0.031126324133     0.000000000000    15.994914619570

  Charge       = 0
  Multiplicity = 1
  Basis Set: 6-31G
    Blend: 6-31G
  Basis Set: (6-31G AUX)
    Blend: CC-PVDZ-JKFIT

    Orbital Energies [Eh]
    ---------------------

    Doubly Occupied:

       1Ap   -20.551747     2Ap    -1.329205     3Ap    -0.719366
       4Ap    -0.527556     1App   -0.491603

  @DF-RHF Final Energy:   -75.97762027563914

   => Energetics <=

    Nuclear Repulsion Energy =              8.9570645975223080
    One-Electron Energy =                -122.6304167921641266
    Two-Electron Energy =                  37.6957319190026823
    Total Energy =                        -75.9776202756391399

  Dipole Moment: [D]
     X:    -1.9874      Y:    -1.2420      Z:     0.0000     Total:     2.3436

  Basis Set: (6-31G AUX)
    Blend: CC-PVDZ-RI
	 Reference Energy          =     -75.9776202756391399 [Eh]
	 Singles Energy            =      -0.0000000000000000 [Eh]
	 Same-Spin Energy          =      -0.0307290386180269 [Eh]
	 Opposite-Spin Energy      =      -0.0993024423694429 [Eh]
	 Correlation Energy        =      -0.1300314809874698 [Eh]
	 Total Energy              =     -76.1076517566266091 [Eh]

	 ================> DF-SCS-MP2 Energies <==================
	-----------------------------------------------------------
	 SCS Same-Spin Scale       =       0.3333333333333333 [-]
	 SCS Opposite-Spin Scale   =       1.2000000000000000 [-]
	 SCS Same-Spin Energy      =      -0.0102430128726756 [Eh]
	 SCS Opposite-Spin Energy  =      -0.1191629308433315 [Eh]
	 SCS Correlation Energy    =      -0.1294059437160071 [Eh]
	 SCS Total Energy          =     -76.1070262193551486 [Eh]
	-----------------------------------------------------------

*** Psi4 exiting successfully. Buy a developer a beer!
