                               Psi4 1.3.1 release

  ==> Input File <==

--------------------------------------------------------------------------
# density fitted MP2
molecule h2o {
0 1
H 0.0000000000 0.0000000000 1.1125000000
H 0.0000000000 0.8500000000 0.0000000000
O 0.0000000000 0.0000000000 0.0000000000
}

set basis 6-31g
energy('mp2')

--------------------------------------------------------------------------

    Molecular point group: cs

    Geometry (in Angstrom), charge = 0, multiplicity = 1:

       Center              X                  Y                   Z               Mass
    ------------   -----------------  -----------------  -----------------  -----------------
         H            0.047563821147    -1.050247351734     0.000000000000     1.007825032230
         H           -0.802436178853     0.062252648266     0.000000000000     1.007825032230
         O            0.047563821147     0.062252648266     0.000000000000    15.994914619570

  Charge       = 0
  Multiplicity = 1
  Basis Set: 6-31G
    Blend: 6-31G
  Basis Set: (6-31G AUX)
    Blend: CC-PVDZ-JKFIT

    Orbital Energies [Eh]
    ---------------------

    Doubly Occupied:

       1Ap   -20.574020     2Ap    -1.377944     3Ap    -0.679184
       4Ap    -0.576959     1App   -0.508880

  @DF-RHF Final Energy:   -75.94055343479550

   => Energetics <=

    Nuclear Repulsion Energy =              9.1637793187729457
    One-Electron Energy =                -122.7746938162715225
    Two-Electron Energy =                  37.6703610627030869
    Total Energy =                        -75.9405534347955040

  Dipole Moment: [D]
     X:    -2.0176      Y:    -2.0001      Z:     0.0000     Total:     2.8410

  Basis Set: (6-31G AUX)
    Blend: CC-PVDZ-RI
	 Reference Energy          =     -75.9405534347955040 [Eh]
	 Singles Energy            =      -0.0000000000000000 [Eh]
	 Same-Spin Energy          =      -0.0304043148192191 [Eh]
	 Opposite-Spin Energy      =      -0.1013290752017210 [Eh]
	 Correlation Energy        =      -0.1317333900209401 [Eh]
	 Total Energy              =     -76.0722868248164446 [Eh]

	 ================> DF-SCS-MP2 Energies <==================
	-----------------------------------------------------------
	 SCS Same-Spin Scale       =       0.3333333333333333 [-]
	 SCS Opposite-Spin Scale   =       1.2000000000000000 [-]
	 SCS Same-Spin Energy      =      -0.0101347716064064 [Eh]
	 SCS Opposite-Spin Energy  =      -0.1215948902420652 [Eh]
	 SCS Correlation Energy    =      -0.1317296618484715 [Eh]
	 SCS Total Energy          =     -76.0722830966439716 [Eh]
	-----------------------------------------------------------

*** Psi4 exiting successfully. Buy a developer a beer!
