                               Psi4 1.2a1.dev429

  ==> Input File <==

--------------------------------------------------------------------------
# density-fitted hartree fock energies and gradients with 6-31g
molecule h20 {
0 1
O 0.0000000000 0.0000000000 0.0000000000
H 0.0000000000 0.0000000000 0.7000000000
H 0.0000000000 0.4500000000 -0.7794228634
}

set basis 6-31g

gradient('hf')
--------------------------------------------------------------------------

    Molecular point group: cs
  Charge       = 0
  Multiplicity = 1
  Basis Set: 6-31G
    Blend: 6-31G
  Basis Set: (6-31G AUX)
    Blend: CC-PVDZ-JKFIT

    Orbital Energies (a.u.)
    -----------------------

    Doubly Occupied:

       1Ap   -20.504200     2Ap    -1.417379     3Ap    -0.881151
       4Ap    -0.512170     1App   -0.500840

  @DF-RHF Final Energy:   -75.84258678025047

   => Energetics <=

    Nuclear Repulsion Energy =             11.0937478894865755
    One-Electron Energy =                -126.2411876286186612
    Two-Electron Energy =                  39.3048529588816038
    Total Energy =                        -75.8425867802504854
    Molecular point group: cs

    Geometry (in Angstrom), charge = 0, multiplicity = 1:

       Center              X                  Y                   Z               Mass
    ------------   -----------------  -----------------  -----------------  -----------------
           O          0.025180846486    -0.004444299846     0.000000000000    15.994914619560
           H          0.025180846486    -0.704444299846     0.000000000000     1.007825032070
           H         -0.424819153514     0.774978563554     0.000000000000     1.007825032070

  Basis Set: 6-31G
    Blend: 6-31G
  Basis Set: (6-31G AUX)
    Blend: CC-PVDZ-JKFIT

  -Total Gradient:
     Atom            X                  Y                   Z
    ------   -----------------  -----------------  -----------------
       1       -0.064498605919    -0.696800652291     0.000000000000
       2        0.028945647473     0.713353620125     0.000000000000
       3        0.035552958446    -0.016552967834     0.000000000000

*** Psi4 exiting successfully. Buy a developer a beer!
