                               Psi4 1.2a1.dev429

  ==> Input File <==

--------------------------------------------------------------------------
# density-fitted hartree fock energies and gradients with 6-31g
molecule h2o {
0 1
O 0.0000000000 0.0000000000 0.0000000000
H 0.0000000000 0.0000000000 1.2000000000
H 0.0000000000 0.2736161147 -0.7517540966
}

set basis 6-31g

gradient('mp2')
--------------------------------------------------------------------------

    Molecular point group: cs
  Charge       = 0
  Multiplicity = 1
  Basis Set: 6-31G
    Blend: 6-31G
  Basis Set: (6-31G AUX)
    Blend: CC-PVDZ-JKFIT

    Orbital Energies (a.u.)
    -----------------------

    Doubly Occupied:

       1Ap   -20.505294     2Ap    -1.312404     3Ap    -0.728492
       4Ap    -0.463980     1App   -0.462422

  @DF-RHF Final Energy:   -75.86880344309996

   => Energetics <=

    Nuclear Repulsion Energy =              9.0881235432597673
    One-Electron Energy =                -122.9686680815811428
    Two-Electron Energy =                  38.0117410952214101
    Total Energy =                        -75.8688034430999636
  Basis Set: (6-31G AUX)
    Blend: CC-PVDZ-RI
    Molecular point group: cs

    Geometry (in Angstrom), charge = 0, multiplicity = 1:

       Center              X                  Y                   Z               Mass
    ------------   -----------------  -----------------  -----------------  -----------------
           O          0.015310856401     0.025082691737     0.000000000000    15.994914619560
           H          0.015310856401    -1.174917308263     0.000000000000     1.007825032070
           H         -0.258305258299     0.776836788337     0.000000000000     1.007825032070

  Basis Set: 6-31G
    Blend: 6-31G
  Basis Set: (6-31G AUX)
    Blend: CC-PVDZ-JKFIT
  Basis Set: (6-31G AUX)
    Blend: CC-PVDZ-JKFIT
	 Reference Energy          =     -75.8688034430999636 [Eh]
	 Singles Energy            =      -0.0000000000000000 [Eh]
	 Same-Spin Energy          =      -0.0309002652791125 [Eh]
	 Opposite-Spin Energy      =      -0.0975996718251735 [Eh]
	 Correlation Energy        =      -0.1284999371042860 [Eh]
	 Total Energy              =     -75.9973033802042437 [Eh]

	 ================> DF-SCS-MP2 Energies <==================
	-----------------------------------------------------------
	 SCS Same-Spin Scale       =       0.3333333333333333 [-]
	 SCS Opposite-Spin Scale   =       1.2000000000000000 [-]
	 SCS Same-Spin Energy      =      -0.0103000884263708 [Eh]
	 SCS Opposite-Spin Energy  =      -0.1171196061902081 [Eh]
	 SCS Correlation Energy    =      -0.1274196946165790 [Eh]
	 SCS Total Energy          =     -75.9962231377165409 [Eh]
	-----------------------------------------------------------

  -Total Gradient:
     Atom            X                  Y                   Z
    ------   -----------------  -----------------  -----------------
       1       -0.159757833880     0.411017817045     0.000000000000
       2        0.023618438053    -0.140561439950    -0.000000000000
       3        0.136139395827    -0.270456377095     0.000000000000

*** Psi4 exiting successfully. Buy a developer a beer!
