                               Psi4 1.2a1.dev429

  ==> Input File <==

--------------------------------------------------------------------------
# density-fitted hartree fock energies and gradients with 6-31g
molecule h2o {
0 1
O 0.0000000000 0.0000000000 0.0000000000
H 0.0000000000 0.0000000000 1.4000000000
H 0.0000000000 0.4446261863 -1.2216004070
}

set basis 6-31g

gradient('mp2')
--------------------------------------------------------------------------

    Molecular point group: cs
  Charge       = 0
  Multiplicity = 1
  Basis Set: 6-31G
    Blend: 6-31G
  Basis Set: (6-31G AUX)
    Blend: CC-PVDZ-JKFIT

    Orbital Energies (a.u.)
    -----------------------

    Doubly Occupied:

       1Ap   -20.539646     2Ap    -1.170455     3Ap    -0.546025
       1App   -0.434822     4Ap    -0.423274

  @DF-RHF Final Energy:   -75.77755163524252

   => Energetics <=

    Nuclear Repulsion Energy =              6.4793556939036314
    One-Electron Energy =                -118.2853691746111338
    Two-Electron Energy =                  36.0284618454649888
    Total Energy =                        -75.7775516352425171
  Basis Set: (6-31G AUX)
    Blend: CC-PVDZ-RI
    Molecular point group: cs

    Geometry (in Angstrom), charge = 0, multiplicity = 1:

       Center              X                  Y                   Z               Mass
    ------------   -----------------  -----------------  -----------------  -----------------
           O          0.024880141647     0.009982783921     0.000000000000    15.994914619560
           H          0.024880141647    -1.390017216079     0.000000000000     1.007825032070
           H         -0.419746044653     1.231583190921     0.000000000000     1.007825032070

  Basis Set: 6-31G
    Blend: 6-31G
  Basis Set: (6-31G AUX)
    Blend: CC-PVDZ-JKFIT
  Basis Set: (6-31G AUX)
    Blend: CC-PVDZ-JKFIT
	 Reference Energy          =     -75.7775516352425171 [Eh]
	 Singles Energy            =      -0.0000000000000000 [Eh]
	 Same-Spin Energy          =      -0.0356017764370374 [Eh]
	 Opposite-Spin Energy      =      -0.1173316122023639 [Eh]
	 Correlation Energy        =      -0.1529333886394013 [Eh]
	 Total Energy              =     -75.9304850238819142 [Eh]

	 ================> DF-SCS-MP2 Energies <==================
	-----------------------------------------------------------
	 SCS Same-Spin Scale       =       0.3333333333333333 [-]
	 SCS Opposite-Spin Scale   =       1.2000000000000000 [-]
	 SCS Same-Spin Energy      =      -0.0118672588123458 [Eh]
	 SCS Opposite-Spin Energy  =      -0.1407979346428367 [Eh]
	 SCS Correlation Energy    =      -0.1526651934551825 [Eh]
	 SCS Total Energy          =     -75.9302168286976951 [Eh]
	-----------------------------------------------------------

  -Total Gradient:
     Atom            X                  Y                   Z
    ------   -----------------  -----------------  -----------------
       1       -0.042913016206    -0.008545667813     0.000000000000
       2        0.040331752185    -0.111355456069    -0.000000000000
       3        0.002581264021     0.119901123883    -0.000000000000

*** Psi4 exiting successfully. Buy a developer a beer!
