                               Psi4 1.2a1.dev429

  ==> Input File <==

--------------------------------------------------------------------------
# density-fitted hartree fock energies and gradients with 6-31g
molecule h2o {
0 1
O 0.0000000000 0.0000000000 0.0000000000
H 0.0000000000 0.0000000000 0.9000000000
H 0.0000000000 0.9192533317 -0.7713451316
}

set basis 6-31g

gradient('mp2')
--------------------------------------------------------------------------

    Molecular point group: cs
  Charge       = 0
  Multiplicity = 1
  Basis Set: 6-31G
    Blend: 6-31G
  Basis Set: (6-31G AUX)
    Blend: CC-PVDZ-JKFIT

    Orbital Energies (a.u.)
    -----------------------

    Doubly Occupied:

       1Ap   -20.549502     2Ap    -1.305199     3Ap    -0.691637
       4Ap    -0.497139     1App   -0.481150

  @DF-RHF Final Energy:   -75.93062312107767

   => Energetics <=

    Nuclear Repulsion Energy =              8.5090698585823095
    One-Electron Energy =                -121.8301306354962890
    Two-Electron Energy =                  37.3904376558363012
    Total Energy =                        -75.9306231210776730
  Basis Set: (6-31G AUX)
    Blend: CC-PVDZ-RI
    Molecular point group: cs

    Geometry (in Angstrom), charge = 0, multiplicity = 1:

       Center              X                  Y                   Z               Mass
    ------------   -----------------  -----------------  -----------------  -----------------
           O          0.051439060061     0.007199196646     0.000000000000    15.994914619560
           H          0.051439060061    -0.892800803354     0.000000000000     1.007825032070
           H         -0.867814271639     0.778544328246     0.000000000000     1.007825032070

  Basis Set: 6-31G
    Blend: 6-31G
  Basis Set: (6-31G AUX)
    Blend: CC-PVDZ-JKFIT
  Basis Set: (6-31G AUX)
    Blend: CC-PVDZ-JKFIT
	 Reference Energy          =     -75.9306231210776730 [Eh]
	 Singles Energy            =      -0.0000000000000000 [Eh]
	 Same-Spin Energy          =      -0.0317367494319122 [Eh]
	 Opposite-Spin Energy      =      -0.1030913217753990 [Eh]
	 Correlation Energy        =      -0.1348280712073112 [Eh]
	 Total Energy              =     -76.0654511922849821 [Eh]

	 ================> DF-SCS-MP2 Energies <==================
	-----------------------------------------------------------
	 SCS Same-Spin Scale       =       0.3333333333333333 [-]
	 SCS Opposite-Spin Scale   =       1.2000000000000000 [-]
	 SCS Same-Spin Energy      =      -0.0105789164773041 [Eh]
	 SCS Opposite-Spin Energy  =      -0.1237095861304788 [Eh]
	 SCS Correlation Energy    =      -0.1342885026077829 [Eh]
	 SCS Total Energy          =     -76.0649116236854610 [Eh]
	-----------------------------------------------------------

  -Total Gradient:
     Atom            X                  Y                   Z
    ------   -----------------  -----------------  -----------------
       1        0.038248897821    -0.183376658679    -0.000000000000
       2        0.034550392969     0.088464049410     0.000000000000
       3       -0.072799290790     0.094912609269     0.000000000000

*** Psi4 exiting successfully. Buy a developer a beer!
