                               Psi4 1.2a1.dev429

  ==> Input File <==

--------------------------------------------------------------------------
# density-fitted hartree fock energies and gradients with 6-31g
molecule h20 {
0 1
O 0.0000000000 0.0000000000 0.0000000000
H 0.0000000000 0.0000000000 0.8000000000
H 0.0000000000 0.4104241720 -1.1276311449
}

set basis 6-31g

gradient('hf')
--------------------------------------------------------------------------

    Molecular point group: cs
  Charge       = 0
  Multiplicity = 1
  Basis Set: 6-31G
    Blend: 6-31G
  Basis Set: (6-31G AUX)
    Blend: CC-PVDZ-JKFIT

    Orbital Energies (a.u.)
    -----------------------

    Doubly Occupied:

       1Ap   -20.505294     2Ap    -1.312404     3Ap    -0.728492
       4Ap    -0.463980     1App   -0.462422

  @DF-RHF Final Energy:   -75.86880344307478

   => Energetics <=

    Nuclear Repulsion Energy =              9.0881235432826362
    One-Electron Energy =                -122.9686680876225182
    Two-Electron Energy =                  38.0117411012651019
    Total Energy =                        -75.8688034430747820
    Molecular point group: cs

    Geometry (in Angstrom), charge = 0, multiplicity = 1:

       Center              X                  Y                   Z               Mass
    ------------   -----------------  -----------------  -----------------  -----------------
           O          0.022966284599    -0.018333399031     0.000000000000    15.994914619560
           H          0.022966284599    -0.818333399031     0.000000000000     1.007825032070
           H         -0.387457887401     1.109297745869     0.000000000000     1.007825032070

  Basis Set: 6-31G
    Blend: 6-31G
  Basis Set: (6-31G AUX)
    Blend: CC-PVDZ-JKFIT

  -Total Gradient:
     Atom            X                  Y                   Z
    ------   -----------------  -----------------  -----------------
       1        0.001424915440    -0.437557589804     0.000000000000
       2        0.032390147989     0.281516495336     0.000000000000
       3       -0.033815063429     0.156041094467     0.000000000000

*** Psi4 exiting successfully. Buy a developer a beer!
