                               Psi4 1.2a1.dev429

  ==> Input File <==

--------------------------------------------------------------------------
# density-fitted hartree fock energies and gradients with 6-31g
molecule h2o {
0 1
O 0.0000000000 0.0000000000 0.0000000000
H 0.0000000000 0.0000000000 1.2000000000
H 0.0000000000 0.0000000000 -0.9000000000
}

set basis 6-31g

gradient('mp2')
--------------------------------------------------------------------------

    Molecular point group: c2v
  Charge       = 0
  Multiplicity = 1
  Basis Set: 6-31G
    Blend: 6-31G
  Basis Set: (6-31G AUX)
    Blend: CC-PVDZ-JKFIT

    Orbital Energies (a.u.)
    -----------------------

    Doubly Occupied:

       1A1   -20.500086     2A1    -1.261168     3A1    -0.697495
       1B1    -0.447390     1B2    -0.447390

  @DF-RHF Final Energy:   -75.88834978485131

   => Energetics <=

    Nuclear Repulsion Energy =              8.4836346139031740
    One-Electron Energy =                -122.0369103171779699
    Two-Electron Energy =                  37.6649259184234850
    Total Energy =                        -75.8883497848513002
  Basis Set: (6-31G AUX)
    Blend: CC-PVDZ-RI
    Molecular point group: c2v

    Geometry (in Angstrom), charge = 0, multiplicity = 1:

       Center              X                  Y                   Z               Mass
    ------------   -----------------  -----------------  -----------------  -----------------
           O          0.000000000000     0.000000000000    -0.016787230991    15.994914619560
           H          0.000000000000     0.000000000000     1.183212769009     1.007825032070
           H          0.000000000000     0.000000000000    -0.916787230991     1.007825032070

  Basis Set: 6-31G
    Blend: 6-31G
  Basis Set: (6-31G AUX)
    Blend: CC-PVDZ-JKFIT
  Basis Set: (6-31G AUX)
    Blend: CC-PVDZ-JKFIT
	 Reference Energy          =     -75.8883497848513144 [Eh]
	 Singles Energy            =      -0.0000000000000000 [Eh]
	 Same-Spin Energy          =      -0.0316357627780927 [Eh]
	 Opposite-Spin Energy      =      -0.0989213265589421 [Eh]
	 Correlation Energy        =      -0.1305570893370348 [Eh]
	 Total Energy              =     -76.0189068741883460 [Eh]

	 ================> DF-SCS-MP2 Energies <==================
	-----------------------------------------------------------
	 SCS Same-Spin Scale       =       0.3333333333333333 [-]
	 SCS Opposite-Spin Scale   =       1.2000000000000000 [-]
	 SCS Same-Spin Energy      =      -0.0105452542593642 [Eh]
	 SCS Opposite-Spin Energy  =      -0.1187055918707305 [Eh]
	 SCS Correlation Energy    =      -0.1292508461300947 [Eh]
	 SCS Total Energy          =     -76.0176006309814056 [Eh]
	-----------------------------------------------------------

  -Total Gradient:
     Atom            X                  Y                   Z
    ------   -----------------  -----------------  -----------------
       1       -0.000000000000    -0.000000000000    -0.211032571912
       2       -0.000000000000     0.000000000000     0.144328836504
       3        0.000000000000     0.000000000000     0.066703735409

*** Psi4 exiting successfully. Buy a developer a beer!
