                               Psi4 1.2a1.dev429

  ==> Input File <==

--------------------------------------------------------------------------
# density-fitted hartree fock energies and gradients with 6-31g
molecule h20 {
0 1
O 0.0000000000 0.0000000000 0.0000000000
H 0.0000000000 0.0000000000 1.2000000000
H 0.0000000000 0.7000000000 -1.2124355653
}

set basis 6-31g

gradient('hf')
--------------------------------------------------------------------------

    Molecular point group: cs
  Charge       = 0
  Multiplicity = 1
  Basis Set: 6-31G
    Blend: 6-31G
  Basis Set: (6-31G AUX)
    Blend: CC-PVDZ-JKFIT

    Orbital Energies (a.u.)
    -----------------------

    Doubly Occupied:

       1Ap   -20.554994     2Ap    -1.196993     3Ap    -0.573614
       1App   -0.450768     4Ap    -0.438307

  @DF-RHF Final Energy:   -75.81594133713440

   => Energetics <=

    Nuclear Repulsion Energy =              6.7623825226048853
    One-Electron Energy =                -118.7272950342577644
    Two-Electron Energy =                  36.1489711745184792
    Total Energy =                        -75.8159413371344044
    Molecular point group: cs

    Geometry (in Angstrom), charge = 0, multiplicity = 1:

       Center              X                  Y                   Z               Mass
    ------------   -----------------  -----------------  -----------------  -----------------
           O          0.039170205645    -0.000695862357     0.000000000000    15.994914619560
           H          0.039170205645    -1.200695862357     0.000000000000     1.007825032070
           H         -0.660829794355     1.211739702943     0.000000000000     1.007825032070

  Basis Set: 6-31G
    Blend: 6-31G
  Basis Set: (6-31G AUX)
    Blend: CC-PVDZ-JKFIT

  -Total Gradient:
     Atom            X                  Y                   Z
    ------   -----------------  -----------------  -----------------
       1        0.004645945571    -0.009786897023     0.000000000000
       2        0.036395229937    -0.123690324806     0.000000000000
       3       -0.041041175508     0.133477221829     0.000000000000

*** Psi4 exiting successfully. Buy a developer a beer!
