                               Psi4 1.2a1.dev429

  ==> Input File <==

--------------------------------------------------------------------------
# density-fitted hartree fock energies and gradients with 6-31g
molecule h2o {
0 1
O 0.0000000000 0.0000000000 0.0000000000
H 0.0000000000 0.0000000000 1.5000000000
H 0.0000000000 0.9958577761 -0.8356238926
}

set basis 6-31g

gradient('mp2')
--------------------------------------------------------------------------

    Molecular point group: cs
  Charge       = 0
  Multiplicity = 1
  Basis Set: 6-31G
    Blend: 6-31G
  Basis Set: (6-31G AUX)
    Blend: CC-PVDZ-JKFIT

    Orbital Energies (a.u.)
    -----------------------

    Doubly Occupied:

       1Ap   -20.605138     2Ap    -1.208260     3Ap    -0.544721
       1App   -0.478187     4Ap    -0.455435

  @DF-RHF Final Energy:   -75.79463239810089

   => Energetics <=

    Nuclear Repulsion Energy =              6.2871674455595850
    One-Electron Energy =                -117.5801194959730367
    Two-Electron Energy =                  35.4983196523125528
    Total Energy =                        -75.7946323981009016
  Basis Set: (6-31G AUX)
    Blend: CC-PVDZ-RI
    Molecular point group: cs

    Geometry (in Angstrom), charge = 0, multiplicity = 1:

       Center              X                  Y                   Z               Mass
    ------------   -----------------  -----------------  -----------------  -----------------
           O          0.055725648405     0.037176783932     0.000000000000    15.994914619560
           H          0.055725648405    -1.462823216068     0.000000000000     1.007825032070
           H         -0.940132127695     0.872800676532     0.000000000000     1.007825032070

  Basis Set: 6-31G
    Blend: 6-31G
  Basis Set: (6-31G AUX)
    Blend: CC-PVDZ-JKFIT
  Basis Set: (6-31G AUX)
    Blend: CC-PVDZ-JKFIT
	 Reference Energy          =     -75.7946323981008874 [Eh]
	 Singles Energy            =      -0.0000000000000000 [Eh]
	 Same-Spin Energy          =      -0.0375008734868741 [Eh]
	 Opposite-Spin Energy      =      -0.1308712245985370 [Eh]
	 Correlation Energy        =      -0.1683720980854111 [Eh]
	 Total Energy              =     -75.9630044961863007 [Eh]

	 ================> DF-SCS-MP2 Energies <==================
	-----------------------------------------------------------
	 SCS Same-Spin Scale       =       0.3333333333333333 [-]
	 SCS Opposite-Spin Scale   =       1.2000000000000000 [-]
	 SCS Same-Spin Energy      =      -0.0125002911622914 [Eh]
	 SCS Opposite-Spin Energy  =      -0.1570454695182444 [Eh]
	 SCS Correlation Energy    =      -0.1695457606805358 [Eh]
	 SCS Total Energy          =     -75.9641781587814222 [Eh]
	-----------------------------------------------------------

  -Total Gradient:
     Atom            X                  Y                   Z
    ------   -----------------  -----------------  -----------------
       1        0.028536978059     0.007962744445    -0.000000000000
       2        0.027422438373    -0.096223023811     0.000000000000
       3       -0.055959416432     0.088260279366     0.000000000000

*** Psi4 exiting successfully. Buy a developer a beer!
