                               Psi4 1.2a1.dev429

  ==> Input File <==

--------------------------------------------------------------------------
# density-fitted hartree fock energies and gradients with 6-31g
molecule h2o {
0 1
O 0.0000000000 0.0000000000 0.0000000000
H 0.0000000000 0.0000000000 1.5000000000
H 0.0000000000 0.4788282007 -1.3155696691
}

set basis 6-31g

gradient('mp2')
--------------------------------------------------------------------------

    Molecular point group: cs
  Charge       = 0
  Multiplicity = 1
  Basis Set: 6-31G
    Blend: 6-31G
  Basis Set: (6-31G AUX)
    Blend: CC-PVDZ-JKFIT

    Orbital Energies (a.u.)
    -----------------------

    Doubly Occupied:

       1Ap   -20.552085     2Ap    -1.159703     3Ap    -0.511121
       1App   -0.437047     4Ap    -0.417470

  @DF-RHF Final Energy:   -75.72867899095093

   => Energetics <=

    Nuclear Repulsion Energy =              6.0314346531938563
    One-Electron Energy =                -117.3653743699291994
    Two-Electron Energy =                  35.6052607257844258
    Total Energy =                        -75.7286789909509253
  Basis Set: (6-31G AUX)
    Blend: CC-PVDZ-RI
    Molecular point group: cs

    Geometry (in Angstrom), charge = 0, multiplicity = 1:

       Center              X                  Y                   Z               Mass
    ------------   -----------------  -----------------  -----------------  -----------------
           O          0.026793998700     0.010320248555     0.000000000000    15.994914619560
           H          0.026793998700    -1.489679751445     0.000000000000     1.007825032070
           H         -0.452034202000     1.325889917655     0.000000000000     1.007825032070

  Basis Set: 6-31G
    Blend: 6-31G
  Basis Set: (6-31G AUX)
    Blend: CC-PVDZ-JKFIT
  Basis Set: (6-31G AUX)
    Blend: CC-PVDZ-JKFIT
	 Reference Energy          =     -75.7286789909509253 [Eh]
	 Singles Energy            =      -0.0000000000000000 [Eh]
	 Same-Spin Energy          =      -0.0367246613325449 [Eh]
	 Opposite-Spin Energy      =      -0.1251205377374450 [Eh]
	 Correlation Energy        =      -0.1618451990699899 [Eh]
	 Total Energy              =     -75.8905241900209120 [Eh]

	 ================> DF-SCS-MP2 Energies <==================
	-----------------------------------------------------------
	 SCS Same-Spin Scale       =       0.3333333333333333 [-]
	 SCS Opposite-Spin Scale   =       1.2000000000000000 [-]
	 SCS Same-Spin Energy      =      -0.0122415537775150 [Eh]
	 SCS Opposite-Spin Energy  =      -0.1501446452849340 [Eh]
	 SCS Correlation Energy    =      -0.1623861990624489 [Eh]
	 SCS Total Energy          =     -75.8910651900133786 [Eh]
	-----------------------------------------------------------

  -Total Gradient:
     Atom            X                  Y                   Z
    ------   -----------------  -----------------  -----------------
       1       -0.051228475930    -0.016302129059    -0.000000000000
       2        0.043062561578    -0.096162034743     0.000000000000
       3        0.008165914352     0.112464163803     0.000000000000

*** Psi4 exiting successfully. Buy a developer a beer!
