                               Psi4 1.2a1.dev429

  ==> Input File <==

--------------------------------------------------------------------------
# density-fitted hartree fock energies and gradients with 6-31g
molecule h2o {
0 1
O 0.0000000000 0.0000000000 0.0000000000
H 0.0000000000 0.0000000000 0.8000000000
H 0.0000000000 0.7000000000 -1.2124355653
}

set basis 6-31g

gradient('mp2')
--------------------------------------------------------------------------

    Molecular point group: cs
  Charge       = 0
  Multiplicity = 1
  Basis Set: 6-31G
    Blend: 6-31G
  Basis Set: (6-31G AUX)
    Blend: CC-PVDZ-JKFIT

    Orbital Energies (a.u.)
    -----------------------

    Doubly Occupied:

       1Ap   -20.517586     2Ap    -1.307833     3Ap    -0.674202
       1App   -0.459838     4Ap    -0.454192

  @DF-RHF Final Energy:   -75.81969901859652

   => Energetics <=

    Nuclear Repulsion Energy =              8.5639998388970113
    One-Electron Energy =                -121.9400967001524378
    Two-Electron Energy =                  37.5563978426589031
    Total Energy =                        -75.8196990185965376
  Basis Set: (6-31G AUX)
    Blend: CC-PVDZ-RI
    Molecular point group: cs

    Geometry (in Angstrom), charge = 0, multiplicity = 1:

       Center              X                  Y                   Z               Mass
    ------------   -----------------  -----------------  -----------------  -----------------
           O          0.039170205645    -0.023078837012     0.000000000000    15.994914619560
           H          0.039170205645    -0.823078837012     0.000000000000     1.007825032070
           H         -0.660829794355     1.189356728288     0.000000000000     1.007825032070

  Basis Set: 6-31G
    Blend: 6-31G
  Basis Set: (6-31G AUX)
    Blend: CC-PVDZ-JKFIT
  Basis Set: (6-31G AUX)
    Blend: CC-PVDZ-JKFIT
	 Reference Energy          =     -75.8196990185965234 [Eh]
	 Singles Energy            =      -0.0000000000000000 [Eh]
	 Same-Spin Energy          =      -0.0321141868134345 [Eh]
	 Opposite-Spin Energy      =      -0.1048065185408497 [Eh]
	 Correlation Energy        =      -0.1369207053542842 [Eh]
	 Total Energy              =     -75.9566197239508085 [Eh]

	 ================> DF-SCS-MP2 Energies <==================
	-----------------------------------------------------------
	 SCS Same-Spin Scale       =       0.3333333333333333 [-]
	 SCS Opposite-Spin Scale   =       1.2000000000000000 [-]
	 SCS Same-Spin Energy      =      -0.0107047289378115 [Eh]
	 SCS Opposite-Spin Energy  =      -0.1257678222490196 [Eh]
	 SCS Correlation Energy    =      -0.1364725511868312 [Eh]
	 SCS Total Energy          =     -75.9561715697833506 [Eh]
	-----------------------------------------------------------

  -Total Gradient:
     Atom            X                  Y                   Z
    ------   -----------------  -----------------  -----------------
       1       -0.013936960954    -0.443679974079    -0.000000000000
       2        0.052913080868     0.315699262577     0.000000000000
       3       -0.038976119914     0.127980711502     0.000000000000

*** Psi4 exiting successfully. Buy a developer a beer!
