                               Psi4 1.2a1.dev429

  ==> Input File <==

--------------------------------------------------------------------------
# density-fitted hartree fock energies and gradients with 6-31g
molecule h20 {
0 1
O 0.0000000000 0.0000000000 0.0000000000
H 0.0000000000 0.0000000000 1.1000000000
H 0.0000000000 0.6062177826 -0.3500000000
}

set basis 6-31g

gradient('hf')
--------------------------------------------------------------------------

    Molecular point group: cs
  Charge       = 0
  Multiplicity = 1
  Basis Set: 6-31G
    Blend: 6-31G
  Basis Set: (6-31G AUX)
    Blend: CC-PVDZ-JKFIT

    Orbital Energies (a.u.)
    -----------------------

    Doubly Occupied:

       1Ap   -20.536186     2Ap    -1.419081     3Ap    -0.767632
       4Ap    -0.535559     1App   -0.501035

  @DF-RHF Final Energy:   -75.83801459586813

   => Energetics <=

    Nuclear Repulsion Energy =             10.2330084388723943
    One-Electron Energy =                -124.6230582930122353
    Two-Electron Energy =                  38.5520352582717152
    Total Energy =                        -75.8380145958681311
    Molecular point group: cs

    Geometry (in Angstrom), charge = 0, multiplicity = 1:

       Center              X                  Y                   Z               Mass
    ------------   -----------------  -----------------  -----------------  -----------------
           O          0.033922393158     0.041968077477     0.000000000000    15.994914619560
           H          0.033922393158    -1.058031922523     0.000000000000     1.007825032070
           H         -0.572295389442     0.391968077477     0.000000000000     1.007825032070

  Basis Set: 6-31G
    Blend: 6-31G
  Basis Set: (6-31G AUX)
    Blend: CC-PVDZ-JKFIT

  -Total Gradient:
     Atom            X                  Y                   Z
    ------   -----------------  -----------------  -----------------
       1       -0.655763364403     0.469672401173     0.000000000000
       2        0.010058121408    -0.115125061173     0.000000000000
       3        0.645705242996    -0.354547340001     0.000000000000

*** Psi4 exiting successfully. Buy a developer a beer!
