                               Psi4 1.2a1.dev429

  ==> Input File <==

--------------------------------------------------------------------------
# density-fitted hartree fock energies and gradients with 6-31g
molecule h2o {
0 1
O 0.0000000000 0.0000000000 0.0000000000
H 0.0000000000 0.0000000000 0.9000000000
H 0.0000000000 0.6000000000 -1.0392304845
}

set basis 6-31g

gradient('mp2')
--------------------------------------------------------------------------

    Molecular point group: cs
  Charge       = 0
  Multiplicity = 1
  Basis Set: 6-31G
    Blend: 6-31G
  Basis Set: (6-31G AUX)
    Blend: CC-PVDZ-JKFIT

    Orbital Energies (a.u.)
    -----------------------

    Doubly Occupied:

       1Ap   -20.524013     2Ap    -1.282377     3Ap    -0.697965
       4Ap    -0.467629     1App   -0.463874

  @DF-RHF Final Energy:   -75.90851549625113

   => Energetics <=

    Nuclear Repulsion Energy =              8.4923329136680383
    One-Electron Energy =                -121.9299824949426920
    Two-Electron Energy =                  37.5291340850235287
    Total Energy =                        -75.9085154962511268
  Basis Set: (6-31G AUX)
    Blend: CC-PVDZ-RI
    Molecular point group: cs

    Geometry (in Angstrom), charge = 0, multiplicity = 1:

       Center              X                  Y                   Z               Mass
    ------------   -----------------  -----------------  -----------------  -----------------
           O          0.033574461982    -0.007790981014     0.000000000000    15.994914619560
           H          0.033574461982    -0.907790981014     0.000000000000     1.007825032070
           H         -0.566425538018     1.031439503486     0.000000000000     1.007825032070

  Basis Set: 6-31G
    Blend: 6-31G
  Basis Set: (6-31G AUX)
    Blend: CC-PVDZ-JKFIT
  Basis Set: (6-31G AUX)
    Blend: CC-PVDZ-JKFIT
	 Reference Energy          =     -75.9085154962511268 [Eh]
	 Singles Energy            =      -0.0000000000000000 [Eh]
	 Same-Spin Energy          =      -0.0318337506530883 [Eh]
	 Opposite-Spin Energy      =      -0.1013318056922649 [Eh]
	 Correlation Energy        =      -0.1331655563453532 [Eh]
	 Total Energy              =     -76.0416810525964735 [Eh]

	 ================> DF-SCS-MP2 Energies <==================
	-----------------------------------------------------------
	 SCS Same-Spin Scale       =       0.3333333333333333 [-]
	 SCS Opposite-Spin Scale   =       1.2000000000000000 [-]
	 SCS Same-Spin Energy      =      -0.0106112502176961 [Eh]
	 SCS Opposite-Spin Energy  =      -0.1215981668307179 [Eh]
	 SCS Correlation Energy    =      -0.1322094170484140 [Eh]
	 SCS Total Energy          =     -76.0407249132995418 [Eh]
	-----------------------------------------------------------

  -Total Gradient:
     Atom            X                  Y                   Z
    ------   -----------------  -----------------  -----------------
       1       -0.004237020385    -0.204956528175    -0.000000000000
       2        0.041514971277     0.078116768051     0.000000000000
       3       -0.037277950893     0.126839760124    -0.000000000000

*** Psi4 exiting successfully. Buy a developer a beer!
