                               Psi4 1.2a1.dev429

  ==> Input File <==

--------------------------------------------------------------------------
# density-fitted hartree fock energies and gradients with 6-31g
molecule h2o {
0 1
O 0.0000000000 0.0000000000 0.0000000000
H 0.0000000000 0.0000000000 1.5000000000
H 0.0000000000 0.9641814145 -1.1490666647
}

set basis 6-31g

gradient('mp2')
--------------------------------------------------------------------------

    Molecular point group: c2v
  Charge       = 0
  Multiplicity = 1
  Basis Set: 6-31G
    Blend: 6-31G
  Basis Set: (6-31G AUX)
    Blend: CC-PVDZ-JKFIT

    Orbital Energies (a.u.)
    -----------------------

    Doubly Occupied:

       1A1   -20.603892     2A1    -1.186546     1B2    -0.508567
       1B1    -0.470824     3A1    -0.437587

  @DF-RHF Final Energy:   -75.73420062329916

   => Energetics <=

    Nuclear Repulsion Energy =              5.8322697659917893
    One-Electron Energy =                -116.7181093034005102
    Two-Electron Energy =                  35.1516389141095615
    Total Energy =                        -75.7342006232991594
  Basis Set: (6-31G AUX)
    Blend: CC-PVDZ-RI
    Molecular point group: c2v

    Geometry (in Angstrom), charge = 0, multiplicity = 1:

       Center              X                  Y                   Z               Mass
    ------------   -----------------  -----------------  -----------------  -----------------
           O          0.000000000000     0.000000000000    -0.057415711493    15.994914619560
           H          0.000000000000    -1.409538931184     0.455614503477     1.007825032070
           H         -0.000000000000     1.409538931184     0.455614503477     1.007825032070

  Basis Set: 6-31G
    Blend: 6-31G
  Basis Set: (6-31G AUX)
    Blend: CC-PVDZ-JKFIT
  Basis Set: (6-31G AUX)
    Blend: CC-PVDZ-JKFIT
	 Reference Energy          =     -75.7342006232991594 [Eh]
	 Singles Energy            =      -0.0000000000000000 [Eh]
	 Same-Spin Energy          =      -0.0388008462351381 [Eh]
	 Opposite-Spin Energy      =      -0.1381654321525024 [Eh]
	 Correlation Energy        =      -0.1769662783876405 [Eh]
	 Total Energy              =     -75.9111669016867978 [Eh]

	 ================> DF-SCS-MP2 Energies <==================
	-----------------------------------------------------------
	 SCS Same-Spin Scale       =       0.3333333333333333 [-]
	 SCS Opposite-Spin Scale   =       1.2000000000000000 [-]
	 SCS Same-Spin Energy      =      -0.0129336154117127 [Eh]
	 SCS Opposite-Spin Energy  =      -0.1657985185830028 [Eh]
	 SCS Correlation Energy    =      -0.1787321339947155 [Eh]
	 SCS Total Energy          =     -75.9129327572938735 [Eh]
	-----------------------------------------------------------

  -Total Gradient:
     Atom            X                  Y                   Z
    ------   -----------------  -----------------  -----------------
       1        0.000000000000     0.000000000011     0.000582832610
       2        0.000000000000    -0.097244794835    -0.000291416304
       3       -0.000000000000     0.097244794824    -0.000291416306

*** Psi4 exiting successfully. Buy a developer a beer!
