                               Psi4 1.2a1.dev429

  ==> Input File <==

--------------------------------------------------------------------------
# density-fitted hartree fock energies and gradients with 6-31g
molecule h20 {
0 1
O 0.0000000000 0.0000000000 0.0000000000
H 0.0000000000 0.0000000000 0.9000000000
H 0.0000000000 0.9958577761 -0.8356238926
}

set basis 6-31g

gradient('hf')
--------------------------------------------------------------------------

    Molecular point group: cs
  Charge       = 0
  Multiplicity = 1
  Basis Set: 6-31G
    Blend: 6-31G
  Basis Set: (6-31G AUX)
    Blend: CC-PVDZ-JKFIT

    Orbital Energies (a.u.)
    -----------------------

    Doubly Occupied:

       1Ap   -20.554646     2Ap    -1.297045     3Ap    -0.669519
       4Ap    -0.487149     1App   -0.479194

  @DF-RHF Final Energy:   -75.90381813733148

   => Energetics <=

    Nuclear Repulsion Energy =              8.2247248864196774
    One-Electron Energy =                -121.2819796903650342
    Two-Electron Energy =                  37.1534366666138709
    Total Energy =                        -75.9038181373314842
    Molecular point group: cs

    Geometry (in Angstrom), charge = 0, multiplicity = 1:

       Center              X                  Y                   Z               Mass
    ------------   -----------------  -----------------  -----------------  -----------------
           O          0.055725648405     0.003602321951     0.000000000000    15.994914619560
           H          0.055725648405    -0.896397678049     0.000000000000     1.007825032070
           H         -0.940132127695     0.839226214551     0.000000000000     1.007825032070

  Basis Set: 6-31G
    Blend: 6-31G
  Basis Set: (6-31G AUX)
    Blend: CC-PVDZ-JKFIT

  -Total Gradient:
     Atom            X                  Y                   Z
    ------   -----------------  -----------------  -----------------
       1        0.059508846823    -0.179162300741     0.000000000000
       2        0.035145290794     0.067975720582     0.000000000000
       3       -0.094654137617     0.111186580159     0.000000000000

*** Psi4 exiting successfully. Buy a developer a beer!
