                               Psi4 1.2a1.dev429

  ==> Input File <==

--------------------------------------------------------------------------
# density-fitted hartree fock energies and gradients with 6-31g
molecule h2o {
0 1
O 0.0000000000 0.0000000000 0.0000000000
H 0.0000000000 0.0000000000 0.8000000000
H 0.0000000000 0.8000000000 0.0000000000
}

set basis 6-31g

gradient('mp2')
--------------------------------------------------------------------------

    Molecular point group: c2v
  Charge       = 0
  Multiplicity = 1
  Basis Set: 6-31G
    Blend: 6-31G
  Basis Set: (6-31G AUX)
    Blend: CC-PVDZ-JKFIT

    Orbital Energies (a.u.)
    -----------------------

    Doubly Occupied:

       1A1   -20.536867     2A1    -1.485027     1B2    -0.768196
       3A1    -0.612755     1B1    -0.518193

  @DF-RHF Final Energy:   -75.89294646596173

   => Energetics <=

    Nuclear Repulsion Energy =             11.0512751626041954
    One-Electron Energy =                -126.0463686391940570
    Two-Electron Energy =                  39.1021470106281370
    Total Energy =                        -75.8929464659617281
  Basis Set: (6-31G AUX)
    Blend: CC-PVDZ-RI
    Molecular point group: c2v

    Geometry (in Angstrom), charge = 0, multiplicity = 1:

       Center              X                  Y                   Z               Mass
    ------------   -----------------  -----------------  -----------------  -----------------
           O          0.000000000000     0.000000000000    -0.063308612645    15.994914619560
           H          0.000000000000    -0.565685424949     0.502376812304     1.007825032070
           H         -0.000000000000     0.565685424949     0.502376812304     1.007825032070

  Basis Set: 6-31G
    Blend: 6-31G
  Basis Set: (6-31G AUX)
    Blend: CC-PVDZ-JKFIT
  Basis Set: (6-31G AUX)
    Blend: CC-PVDZ-JKFIT
	 Reference Energy          =     -75.8929464659617281 [Eh]
	 Singles Energy            =      -0.0000000000000000 [Eh]
	 Same-Spin Energy          =      -0.0265070476111431 [Eh]
	 Opposite-Spin Energy      =      -0.0883624104084676 [Eh]
	 Correlation Energy        =      -0.1148694580196107 [Eh]
	 Total Energy              =     -76.0078159239813402 [Eh]

	 ================> DF-SCS-MP2 Energies <==================
	-----------------------------------------------------------
	 SCS Same-Spin Scale       =       0.3333333333333333 [-]
	 SCS Opposite-Spin Scale   =       1.2000000000000000 [-]
	 SCS Same-Spin Energy      =      -0.0088356825370477 [Eh]
	 SCS Opposite-Spin Energy  =      -0.1060348924901612 [Eh]
	 SCS Correlation Energy    =      -0.1148705750272088 [Eh]
	 SCS Total Energy          =     -76.0078170409889395 [Eh]
	-----------------------------------------------------------

  -Total Gradient:
     Atom            X                  Y                   Z
    ------   -----------------  -----------------  -----------------
       1       -0.000000000000    -0.000000000013     0.373650393881
       2        0.000000000000     0.285416504924    -0.186825196947
       3        0.000000000000    -0.285416504912    -0.186825196934

*** Psi4 exiting successfully. Buy a developer a beer!
