                               Psi4 1.2.1 release

  ==> Input File <==

--------------------------------------------------------------------------
# density fitted hartree fock
molecule h2o {
0 1
H 0.0000000000 0.0000000000 1.0250000000
H 0.0000000000 0.8118988160 -0.4687500000
O 0.0000000000 0.0000000000 0.0000000000
}

set basis 6-31g
energy('hf')

--------------------------------------------------------------------------

    Molecular point group: cs

    Geometry (in Angstrom), charge = 0, multiplicity = 1:

       Center              X                  Y                   Z               Mass
    ------------   -----------------  -----------------  -----------------  -----------------
         H            0.045431776551    -0.993873675871     0.000000000000     1.007825032070
         H           -0.766467039449     0.499876324129     0.000000000000     1.007825032070
         O            0.045431776551     0.031126324129     0.000000000000    15.994914619560

  Charge       = 0
  Multiplicity = 1
  Basis Set: 6-31G
    Blend: 6-31G
  Basis Set: (6-31G AUX)
    Blend: CC-PVDZ-JKFIT

    Orbital Energies [Eh]
    ---------------------

    Doubly Occupied:

       1Ap   -20.551747     2Ap    -1.329205     3Ap    -0.719366
       4Ap    -0.527556     1App   -0.491602

  @DF-RHF Final Energy:   -75.97762027514413

   => Energetics <=

    Nuclear Repulsion Energy =              8.9570645623153951
    One-Electron Energy =                -122.6304142632966574
    Two-Electron Energy =                  37.6957294258371363
    Total Energy =                        -75.9776202751441190

  Dipole Moment: [D]
     X:    -1.9874      Y:    -1.2420      Z:     0.0000     Total:     2.3436

*** Psi4 exiting successfully. Buy a developer a beer!
