                               Psi4 1.2.1 release

  ==> Input File <==

--------------------------------------------------------------------------
# density fitted hartree fock
molecule h2o {
0 1
H 0.0000000000 0.0000000000 1.1125000000
H 0.0000000000 0.8210369523 -0.2199961883
O 0.0000000000 0.0000000000 0.0000000000
}

set basis 6-31g
energy('hf')

--------------------------------------------------------------------------

    Molecular point group: cs

    Geometry (in Angstrom), charge = 0, multiplicity = 1:

       Center              X                  Y                   Z               Mass
    ------------   -----------------  -----------------  -----------------  -----------------
         H            0.045943123234    -1.062557774509     0.000000000000     1.007825032070
         H           -0.775093829066     0.269938413791     0.000000000000     1.007825032070
         O            0.045943123234     0.049942225491     0.000000000000    15.994914619560

  Charge       = 0
  Multiplicity = 1
  Basis Set: 6-31G
    Blend: 6-31G
  Basis Set: (6-31G AUX)
    Blend: CC-PVDZ-JKFIT

    Orbital Energies [Eh]
    ---------------------

    Doubly Occupied:

       1Ap   -20.563201     2Ap    -1.360988     3Ap    -0.702047
       4Ap    -0.551611     1App   -0.501315

  @DF-RHF Final Energy:   -75.95117922280276

   => Energetics <=

    Nuclear Repulsion Energy =              9.1239138504147732
    One-Electron Energy =                -122.7918591223052687
    Two-Electron Energy =                  37.7167660490877239
    Total Energy =                        -75.9511792228027645

  Dipole Moment: [D]
     X:    -2.0116      Y:    -1.6843      Z:     0.0000     Total:     2.6237

*** Psi4 exiting successfully. Buy a developer a beer!
