                               Psi4 1.2a1.dev429

  ==> Input File <==

--------------------------------------------------------------------------
# density-fitted hartree fock energies and gradients with 6-31g
molecule h2o {
0 1
O 0.0000000000 0.0000000000 0.0000000000
H 0.0000000000 0.0000000000 1.3000000000
H 0.0000000000 0.6000000000 -1.0392304845
}

set basis 6-31g

gradient('mp2')
--------------------------------------------------------------------------

    Molecular point group: cs
  Charge       = 0
  Multiplicity = 1
  Basis Set: 6-31G
    Blend: 6-31G
  Basis Set: (6-31G AUX)
    Blend: CC-PVDZ-JKFIT

    Orbital Energies (a.u.)
    -----------------------

    Doubly Occupied:

       1Ap   -20.549475     2Ap    -1.203720     3Ap    -0.592332
       1App   -0.450992     4Ap    -0.444299

  @DF-RHF Final Energy:   -75.84201324533399

   => Energetics <=

    Nuclear Repulsion Energy =              7.0034484252418059
    One-Electron Energy =                -119.2092885410740308
    Two-Electron Energy =                  36.3638268704982437
    Total Energy =                        -75.8420132453339875
  Basis Set: (6-31G AUX)
    Blend: CC-PVDZ-RI
    Molecular point group: cs

    Geometry (in Angstrom), charge = 0, multiplicity = 1:

       Center              X                  Y                   Z               Mass
    ------------   -----------------  -----------------  -----------------  -----------------
           O          0.033574461982     0.014591993640     0.000000000000    15.994914619560
           H          0.033574461982    -1.285408006360     0.000000000000     1.007825032070
           H         -0.566425538018     1.053822478140     0.000000000000     1.007825032070

  Basis Set: 6-31G
    Blend: 6-31G
  Basis Set: (6-31G AUX)
    Blend: CC-PVDZ-JKFIT
  Basis Set: (6-31G AUX)
    Blend: CC-PVDZ-JKFIT
	 Reference Energy          =     -75.8420132453339875 [Eh]
	 Singles Energy            =      -0.0000000000000000 [Eh]
	 Same-Spin Energy          =      -0.0347991210390549 [Eh]
	 Opposite-Spin Energy      =      -0.1137339758516234 [Eh]
	 Correlation Energy        =      -0.1485330968906783 [Eh]
	 Total Energy              =     -75.9905463422246612 [Eh]

	 ================> DF-SCS-MP2 Energies <==================
	-----------------------------------------------------------
	 SCS Same-Spin Scale       =       0.3333333333333333 [-]
	 SCS Opposite-Spin Scale   =       1.2000000000000000 [-]
	 SCS Same-Spin Energy      =      -0.0115997070130183 [Eh]
	 SCS Opposite-Spin Energy  =      -0.1364807710219480 [Eh]
	 SCS Correlation Energy    =      -0.1480804780349663 [Eh]
	 SCS Total Energy          =     -75.9900937233689575 [Eh]
	-----------------------------------------------------------

  -Total Gradient:
     Atom            X                  Y                   Z
    ------   -----------------  -----------------  -----------------
       1       -0.022383944832     0.002464155934     0.000000000000
       2        0.039020581170    -0.115824248135    -0.000000000000
       3       -0.016636636337     0.113360092200     0.000000000000

*** Psi4 exiting successfully. Buy a developer a beer!
