                               Psi4 1.2a1.dev429

  ==> Input File <==

--------------------------------------------------------------------------
# density-fitted hartree fock energies and gradients with 6-31g
molecule h2o {
0 1
O 0.0000000000 0.0000000000 0.0000000000
H 0.0000000000 0.0000000000 1.5000000000
H 0.0000000000 1.4000000000 0.0000000000
}

set basis 6-31g

gradient('mp2')
--------------------------------------------------------------------------

    Molecular point group: cs
  Charge       = 0
  Multiplicity = 1
  Basis Set: 6-31G
    Blend: 6-31G
  Basis Set: (6-31G AUX)
    Blend: CC-PVDZ-JKFIT

    Orbital Energies (a.u.)
    -----------------------

    Doubly Occupied:

       1Ap   -20.650988     2Ap    -1.230162     3Ap    -0.519363
       1App   -0.507381     4Ap    -0.495808

  @DF-RHF Final Energy:   -75.79074522103849

   => Energetics <=

    Nuclear Repulsion Energy =              6.1040533999672784
    One-Electron Energy =                -116.9821927909057422
    Two-Electron Energy =                  35.0873941698999730
    Total Energy =                        -75.7907452210384918
  Basis Set: (6-31G AUX)
    Blend: CC-PVDZ-RI
    Molecular point group: cs

    Geometry (in Angstrom), charge = 0, multiplicity = 1:

       Center              X                  Y                   Z               Mass
    ------------   -----------------  -----------------  -----------------  -----------------
           O          0.078340411291     0.083936154954     0.000000000000    15.994914619560
           H          0.078340411291    -1.416063845046     0.000000000000     1.007825032070
           H         -1.321659588709     0.083936154954     0.000000000000     1.007825032070

  Basis Set: 6-31G
    Blend: 6-31G
  Basis Set: (6-31G AUX)
    Blend: CC-PVDZ-JKFIT
  Basis Set: (6-31G AUX)
    Blend: CC-PVDZ-JKFIT
	 Reference Energy          =     -75.7907452210384918 [Eh]
	 Singles Energy            =      -0.0000000000000000 [Eh]
	 Same-Spin Energy          =      -0.0406379858341952 [Eh]
	 Opposite-Spin Energy      =      -0.1417776468230225 [Eh]
	 Correlation Energy        =      -0.1824156326572176 [Eh]
	 Total Energy              =     -75.9731608536957026 [Eh]

	 ================> DF-SCS-MP2 Energies <==================
	-----------------------------------------------------------
	 SCS Same-Spin Scale       =       0.3333333333333333 [-]
	 SCS Opposite-Spin Scale   =       1.2000000000000000 [-]
	 SCS Same-Spin Energy      =      -0.0135459952780651 [Eh]
	 SCS Opposite-Spin Energy  =      -0.1701331761876269 [Eh]
	 SCS Correlation Energy    =      -0.1836791714656920 [Eh]
	 SCS Total Energy          =     -75.9744243925041900 [Eh]
	-----------------------------------------------------------

  -Total Gradient:
     Atom            X                  Y                   Z
    ------   -----------------  -----------------  -----------------
       1        0.093529280339     0.091587060971     0.000000000000
       2        0.000211640789    -0.091813815435    -0.000000000000
       3       -0.093740921128     0.000226754464    -0.000000000000

*** Psi4 exiting successfully. Buy a developer a beer!
