                               Psi4 1.2a1.dev429

  ==> Input File <==

--------------------------------------------------------------------------
# density-fitted hartree fock energies and gradients with 6-31g
molecule h2o {
0 1
O 0.0000000000 0.0000000000 0.0000000000
H 0.0000000000 0.0000000000 1.2000000000
H 0.0000000000 0.6427876097 -0.7660444431
}

set basis 6-31g

gradient('mp2')
--------------------------------------------------------------------------

    Molecular point group: cs
  Charge       = 0
  Multiplicity = 1
  Basis Set: 6-31G
    Blend: 6-31G
  Basis Set: (6-31G AUX)
    Blend: CC-PVDZ-JKFIT

    Orbital Energies (a.u.)
    -----------------------

    Doubly Occupied:

       1Ap   -20.545679     2Ap    -1.263871     3Ap    -0.667096
       4Ap    -0.475776     1App   -0.468811

  @DF-RHF Final Energy:   -75.91956576835490

   => Energetics <=

    Nuclear Repulsion Energy =              8.0170978195038032
    One-Electron Energy =                -121.0308618205007321
    Two-Electron Energy =                  37.0941982326420288
    Total Energy =                        -75.9195657683549001
  Basis Set: (6-31G AUX)
    Blend: CC-PVDZ-RI
    Molecular point group: cs

    Geometry (in Angstrom), charge = 0, multiplicity = 1:

       Center              X                  Y                   Z               Mass
    ------------   -----------------  -----------------  -----------------  -----------------
           O          0.035968746940     0.024283040578     0.000000000000    15.994914619560
           H          0.035968746940    -1.175716959422     0.000000000000     1.007825032070
           H         -0.606818862760     0.790327483678     0.000000000000     1.007825032070

  Basis Set: 6-31G
    Blend: 6-31G
  Basis Set: (6-31G AUX)
    Blend: CC-PVDZ-JKFIT
  Basis Set: (6-31G AUX)
    Blend: CC-PVDZ-JKFIT
	 Reference Energy          =     -75.9195657683549001 [Eh]
	 Singles Energy            =      -0.0000000000000000 [Eh]
	 Same-Spin Energy          =      -0.0327290375741719 [Eh]
	 Opposite-Spin Energy      =      -0.1055165411384769 [Eh]
	 Correlation Energy        =      -0.1382455787126488 [Eh]
	 Total Energy              =     -76.0578113470675419 [Eh]

	 ================> DF-SCS-MP2 Energies <==================
	-----------------------------------------------------------
	 SCS Same-Spin Scale       =       0.3333333333333333 [-]
	 SCS Opposite-Spin Scale   =       1.2000000000000000 [-]
	 SCS Same-Spin Energy      =      -0.0109096791913906 [Eh]
	 SCS Opposite-Spin Energy  =      -0.1266198493661723 [Eh]
	 SCS Correlation Energy    =      -0.1375295285575629 [Eh]
	 SCS Total Energy          =     -76.0570952969124647 [Eh]
	-----------------------------------------------------------

  -Total Gradient:
     Atom            X                  Y                   Z
    ------   -----------------  -----------------  -----------------
       1       -0.043976259102     0.067941958134     0.000000000000
       2        0.033221484113    -0.117145061665    -0.000000000000
       3        0.010754774989     0.049203103531    -0.000000000000

*** Psi4 exiting successfully. Buy a developer a beer!
