                               Psi4 1.2a1.dev429

  ==> Input File <==

--------------------------------------------------------------------------
# density-fitted hartree fock energies and gradients with 6-31g
molecule h2o {
0 1
O 0.0000000000 0.0000000000 0.0000000000
H 0.0000000000 0.0000000000 0.9000000000
H 0.0000000000 0.0000000000 -1.4000000000
}

set basis 6-31g

gradient('mp2')
--------------------------------------------------------------------------

    Molecular point group: c2v
  Charge       = 0
  Multiplicity = 1
  Basis Set: 6-31G
    Blend: 6-31G
  Basis Set: (6-31G AUX)
    Blend: CC-PVDZ-JKFIT

    Orbital Energies (a.u.)
    -----------------------

    Doubly Occupied:

       1A1   -20.489976     2A1    -1.235176     3A1    -0.635973
       1B2    -0.428712     1B1    -0.428712

  @DF-RHF Final Energy:   -75.82620297999293

   => Energetics <=

    Nuclear Repulsion Energy =              7.9577442202733613
    One-Electron Energy =                -121.1307962964245490
    Two-Electron Energy =                  37.3468490961582589
    Total Energy =                        -75.8262029799929280
  Basis Set: (6-31G AUX)
    Blend: CC-PVDZ-RI
    Molecular point group: c2v

    Geometry (in Angstrom), charge = 0, multiplicity = 1:

       Center              X                  Y                   Z               Mass
    ------------   -----------------  -----------------  -----------------  -----------------
           O          0.000000000000     0.000000000000     0.027978718318    15.994914619560
           H          0.000000000000     0.000000000000     0.927978718318     1.007825032070
           H          0.000000000000     0.000000000000    -1.372021281682     1.007825032070

  Basis Set: 6-31G
    Blend: 6-31G
  Basis Set: (6-31G AUX)
    Blend: CC-PVDZ-JKFIT
  Basis Set: (6-31G AUX)
    Blend: CC-PVDZ-JKFIT
	 Reference Energy          =     -75.8262029799929280 [Eh]
	 Singles Energy            =      -0.0000000000000000 [Eh]
	 Same-Spin Energy          =      -0.0328470967608120 [Eh]
	 Opposite-Spin Energy      =      -0.1031161693356444 [Eh]
	 Correlation Energy        =      -0.1359632660964565 [Eh]
	 Total Energy              =     -75.9621662460893816 [Eh]

	 ================> DF-SCS-MP2 Energies <==================
	-----------------------------------------------------------
	 SCS Same-Spin Scale       =       0.3333333333333333 [-]
	 SCS Opposite-Spin Scale   =       1.2000000000000000 [-]
	 SCS Same-Spin Energy      =      -0.0109490322536040 [Eh]
	 SCS Opposite-Spin Energy  =      -0.1237394032027733 [Eh]
	 SCS Correlation Energy    =      -0.1346884354563773 [Eh]
	 SCS Total Energy          =     -75.9608914154493107 [Eh]
	-----------------------------------------------------------

  -Total Gradient:
     Atom            X                  Y                   Z
    ------   -----------------  -----------------  -----------------
       1        0.000000000000     0.000000000000     0.224983448496
       2       -0.000000000000    -0.000000000000    -0.075328290028
       3        0.000000000000     0.000000000000    -0.149655158468

*** Psi4 exiting successfully. Buy a developer a beer!
