                               Psi4 1.2a1.dev429

  ==> Input File <==

--------------------------------------------------------------------------
# density-fitted hartree fock energies and gradients with 6-31g
molecule h2o {
0 1
O 0.0000000000 0.0000000000 0.0000000000
H 0.0000000000 0.0000000000 1.0000000000
H 0.0000000000 0.1562833599 -0.8863269777
}

set basis 6-31g

gradient('mp2')
--------------------------------------------------------------------------

    Molecular point group: cs
  Charge       = 0
  Multiplicity = 1
  Basis Set: 6-31G
    Blend: 6-31G
  Basis Set: (6-31G AUX)
    Blend: CC-PVDZ-JKFIT

    Orbital Energies (a.u.)
    -----------------------

    Doubly Occupied:

       1Ap   -20.505530     2Ap    -1.300535     3Ap    -0.770857
       4Ap    -0.468977     1App   -0.468087

  @DF-RHF Final Energy:   -75.93962015584579

   => Energetics <=

    Nuclear Repulsion Energy =              9.2167903143402192
    One-Electron Energy =                -123.2848491437447365
    Two-Electron Energy =                  38.1284386735587333
    Total Energy =                        -75.9396201558457875
  Basis Set: (6-31G AUX)
    Blend: CC-PVDZ-RI
    Molecular point group: cs

    Geometry (in Angstrom), charge = 0, multiplicity = 1:

       Center              X                  Y                   Z               Mass
    ------------   -----------------  -----------------  -----------------  -----------------
           O          0.008745216209     0.006360850943     0.000000000000    15.994914619560
           H          0.008745216209    -0.993639149057     0.000000000000     1.007825032070
           H         -0.147538143691     0.892687828643     0.000000000000     1.007825032070

  Basis Set: 6-31G
    Blend: 6-31G
  Basis Set: (6-31G AUX)
    Blend: CC-PVDZ-JKFIT
  Basis Set: (6-31G AUX)
    Blend: CC-PVDZ-JKFIT
	 Reference Energy          =     -75.9396201558457875 [Eh]
	 Singles Energy            =      -0.0000000000000000 [Eh]
	 Same-Spin Energy          =      -0.0301653446217670 [Eh]
	 Opposite-Spin Energy      =      -0.0946357085474471 [Eh]
	 Correlation Energy        =      -0.1248010531692141 [Eh]
	 Total Energy              =     -76.0644212090149949 [Eh]

	 ================> DF-SCS-MP2 Energies <==================
	-----------------------------------------------------------
	 SCS Same-Spin Scale       =       0.3333333333333333 [-]
	 SCS Opposite-Spin Scale   =       1.2000000000000000 [-]
	 SCS Same-Spin Energy      =      -0.0100551148739223 [Eh]
	 SCS Opposite-Spin Energy  =      -0.1135628502569365 [Eh]
	 SCS Correlation Energy    =      -0.1236179651308588 [Eh]
	 SCS Total Energy          =     -76.0632381209766493 [Eh]
	-----------------------------------------------------------

  -Total Gradient:
     Atom            X                  Y                   Z
    ------   -----------------  -----------------  -----------------
       1       -0.038952711141     0.117025068041     0.000000000000
       2        0.013697850973    -0.061445174846    -0.000000000000
       3        0.025254860168    -0.055579893195    -0.000000000000

*** Psi4 exiting successfully. Buy a developer a beer!
