                               Psi4 1.2a1.dev429

  ==> Input File <==

--------------------------------------------------------------------------
# density-fitted hartree fock energies and gradients with 6-31g
molecule h2o {
0 1
O 0.0000000000 0.0000000000 0.0000000000
H 0.0000000000 0.0000000000 1.3000000000
H 0.0000000000 1.4095389312 -0.5130302150
}

set basis 6-31g

gradient('mp2')
--------------------------------------------------------------------------

    Molecular point group: cs
  Charge       = 0
  Multiplicity = 1
  Basis Set: 6-31G
    Blend: 6-31G
  Basis Set: (6-31G AUX)
    Blend: CC-PVDZ-JKFIT

    Orbital Energies (a.u.)
    -----------------------

    Doubly Occupied:

       1Ap   -20.628891     2Ap    -1.225546     3Ap    -0.543167
       1App   -0.494994     4Ap    -0.479509

  @DF-RHF Final Energy:   -75.81181519154556

   => Energetics <=

    Nuclear Repulsion Energy =              6.3091820096264026
    One-Electron Energy =                -117.4977814112950085
    Two-Electron Energy =                  35.3767842101230485
    Total Energy =                        -75.8118151915455627
  Basis Set: (6-31G AUX)
    Blend: CC-PVDZ-RI
    Molecular point group: cs

    Geometry (in Angstrom), charge = 0, multiplicity = 1:

       Center              X                  Y                   Z               Mass
    ------------   -----------------  -----------------  -----------------  -----------------
           O          0.078874185429     0.044036811879     0.000000000000    15.994914619560
           H          0.078874185429    -1.255963188121     0.000000000000     1.007825032070
           H         -1.330664745771     0.557067026879     0.000000000000     1.007825032070

  Basis Set: 6-31G
    Blend: 6-31G
  Basis Set: (6-31G AUX)
    Blend: CC-PVDZ-JKFIT
  Basis Set: (6-31G AUX)
    Blend: CC-PVDZ-JKFIT
	 Reference Energy          =     -75.8118151915455627 [Eh]
	 Singles Energy            =      -0.0000000000000000 [Eh]
	 Same-Spin Energy          =      -0.0382174583951431 [Eh]
	 Opposite-Spin Energy      =      -0.1338135542864548 [Eh]
	 Correlation Energy        =      -0.1720310126815979 [Eh]
	 Total Energy              =     -75.9838462042271630 [Eh]

	 ================> DF-SCS-MP2 Energies <==================
	-----------------------------------------------------------
	 SCS Same-Spin Scale       =       0.3333333333333333 [-]
	 SCS Opposite-Spin Scale   =       1.2000000000000000 [-]
	 SCS Same-Spin Energy      =      -0.0127391527983810 [Eh]
	 SCS Opposite-Spin Energy  =      -0.1605762651437458 [Eh]
	 SCS Correlation Energy    =      -0.1733154179421268 [Eh]
	 SCS Total Energy          =     -75.9851306094876833 [Eh]
	-----------------------------------------------------------

  -Total Gradient:
     Atom            X                  Y                   Z
    ------   -----------------  -----------------  -----------------
       1        0.069572700539     0.050797526570    -0.000000000000
       2        0.016653862281    -0.097541075248     0.000000000000
       3       -0.086226562820     0.046743548678    -0.000000000000

*** Psi4 exiting successfully. Buy a developer a beer!
