                               Psi4 1.2a1.dev429

  ==> Input File <==

--------------------------------------------------------------------------
# density-fitted hartree fock energies and gradients with 6-31g
molecule h2o {
0 1
O 0.0000000000 0.0000000000 0.0000000000
H 0.0000000000 0.0000000000 1.1000000000
H 0.0000000000 0.9641814145 -1.1490666647
}

set basis 6-31g

gradient('mp2')
--------------------------------------------------------------------------

    Molecular point group: cs
  Charge       = 0
  Multiplicity = 1
  Basis Set: 6-31G
    Blend: 6-31G
  Basis Set: (6-31G AUX)
    Blend: CC-PVDZ-JKFIT

    Orbital Energies (a.u.)
    -----------------------

    Doubly Occupied:

       1Ap   -20.570482     2Ap    -1.222716     3Ap    -0.587091
       1App   -0.465157     4Ap    -0.446082

  @DF-RHF Final Energy:   -75.82604065814293

   => Energetics <=

    Nuclear Repulsion Energy =              6.8870929770121929
    One-Electron Energy =                -118.8432120790980662
    Two-Electron Energy =                  36.1300784439429563
    Total Energy =                        -75.8260406581429152
  Basis Set: (6-31G AUX)
    Blend: CC-PVDZ-RI
    Molecular point group: cs

    Geometry (in Angstrom), charge = 0, multiplicity = 1:

       Center              X                  Y                   Z               Mass
    ------------   -----------------  -----------------  -----------------  -----------------
           O          0.053953120408    -0.002745644781     0.000000000000    15.994914619560
           H          0.053953120408    -1.102745644781     0.000000000000     1.007825032070
           H         -0.910228294092     1.146321019919     0.000000000000     1.007825032070

  Basis Set: 6-31G
    Blend: 6-31G
  Basis Set: (6-31G AUX)
    Blend: CC-PVDZ-JKFIT
  Basis Set: (6-31G AUX)
    Blend: CC-PVDZ-JKFIT
	 Reference Energy          =     -75.8260406581429294 [Eh]
	 Singles Energy            =      -0.0000000000000000 [Eh]
	 Same-Spin Energy          =      -0.0355309700682852 [Eh]
	 Opposite-Spin Energy      =      -0.1209944578076670 [Eh]
	 Correlation Energy        =      -0.1565254278759522 [Eh]
	 Total Energy              =     -75.9825660860188776 [Eh]

	 ================> DF-SCS-MP2 Energies <==================
	-----------------------------------------------------------
	 SCS Same-Spin Scale       =       0.3333333333333333 [-]
	 SCS Opposite-Spin Scale   =       1.2000000000000000 [-]
	 SCS Same-Spin Energy      =      -0.0118436566894284 [Eh]
	 SCS Opposite-Spin Energy  =      -0.1451933493692004 [Eh]
	 SCS Correlation Energy    =      -0.1570370060586288 [Eh]
	 SCS Total Energy          =     -75.9830776642015593 [Eh]
	-----------------------------------------------------------

  -Total Gradient:
     Atom            X                  Y                   Z
    ------   -----------------  -----------------  -----------------
       1       -0.001985831838    -0.027150816962    -0.000000000000
       2        0.043222654106    -0.071304489717    -0.000000000000
       3       -0.041236822268     0.098455306679     0.000000000000

*** Psi4 exiting successfully. Buy a developer a beer!
