                               Psi4 1.2a1.dev429

  ==> Input File <==

--------------------------------------------------------------------------
# density-fitted hartree fock energies and gradients with 6-31g
molecule h20 {
0 1
O 0.0000000000 0.0000000000 0.0000000000
H 0.0000000000 0.0000000000 1.0000000000
H 0.0000000000 0.8000000000 0.0000000000
}

set basis 6-31g

gradient('hf')
--------------------------------------------------------------------------

    Molecular point group: cs
  Charge       = 0
  Multiplicity = 1
  Basis Set: 6-31G
    Blend: 6-31G
  Basis Set: (6-31G AUX)
    Blend: CC-PVDZ-JKFIT

    Orbital Energies (a.u.)
    -----------------------

    Doubly Occupied:

       1Ap   -20.557699     2Ap    -1.421355     3Ap    -0.713992
       4Ap    -0.594518     1App   -0.512078

  @DF-RHF Final Energy:   -75.93166747800593

   => Energetics <=

    Nuclear Repulsion Energy =              9.9384077314760582
    One-Electron Energy =                -124.1408647545086978
    Two-Electron Energy =                  38.2707895450267017
    Total Energy =                        -75.9316674780059344
    Molecular point group: cs

    Geometry (in Angstrom), charge = 0, multiplicity = 1:

       Center              X                  Y                   Z               Mass
    ------------   -----------------  -----------------  -----------------  -----------------
           O          0.044765949309     0.055957436636     0.000000000000    15.994914619560
           H          0.044765949309    -0.944042563364     0.000000000000     1.007825032070
           H         -0.755234050691     0.055957436636     0.000000000000     1.007825032070

  Basis Set: 6-31G
    Blend: 6-31G
  Basis Set: (6-31G AUX)
    Blend: CC-PVDZ-JKFIT

  -Total Gradient:
     Atom            X                  Y                   Z
    ------   -----------------  -----------------  -----------------
       1       -0.261793253057     0.085564176847     0.000000000000
       2       -0.045141634138    -0.029137134829     0.000000000000
       3        0.306934887194    -0.056427042018     0.000000000000

*** Psi4 exiting successfully. Buy a developer a beer!
