                               Psi4 1.2a1.dev429

  ==> Input File <==

--------------------------------------------------------------------------
# density-fitted hartree fock energies and gradients with 6-31g
molecule h2o {
0 1
O 0.0000000000 0.0000000000 0.0000000000
H 0.0000000000 0.0000000000 1.5000000000
H 0.0000000000 0.6500000000 -1.1258330249
}

set basis 6-31g

gradient('mp2')
--------------------------------------------------------------------------

    Molecular point group: cs
  Charge       = 0
  Multiplicity = 1
  Basis Set: 6-31G
    Blend: 6-31G
  Basis Set: (6-31G AUX)
    Blend: CC-PVDZ-JKFIT

    Orbital Energies (a.u.)
    -----------------------

    Doubly Occupied:

       1Ap   -20.569245     2Ap    -1.183119     3Ap    -0.537903
       1App   -0.452853     4Ap    -0.430015

  @DF-RHF Final Energy:   -75.76732454091271

   => Energetics <=

    Nuclear Repulsion Energy =              6.2743765207649620
    One-Electron Energy =                -117.7371329358428795
    Two-Electron Energy =                  35.6954318741652088
    Total Energy =                        -75.7673245409127105
  Basis Set: (6-31G AUX)
    Blend: CC-PVDZ-RI
    Molecular point group: cs

    Geometry (in Angstrom), charge = 0, multiplicity = 1:

       Center              X                  Y                   Z               Mass
    ------------   -----------------  -----------------  -----------------  -----------------
           O          0.036372333814     0.020937424801     0.000000000000    15.994914619560
           H          0.036372333814    -1.479062575199     0.000000000000     1.007825032070
           H         -0.613627666186     1.146770449701     0.000000000000     1.007825032070

  Basis Set: 6-31G
    Blend: 6-31G
  Basis Set: (6-31G AUX)
    Blend: CC-PVDZ-JKFIT
  Basis Set: (6-31G AUX)
    Blend: CC-PVDZ-JKFIT
	 Reference Energy          =     -75.7673245409127105 [Eh]
	 Singles Energy            =      -0.0000000000000000 [Eh]
	 Same-Spin Energy          =      -0.0368341518638770 [Eh]
	 Opposite-Spin Energy      =      -0.1260520513628925 [Eh]
	 Correlation Energy        =      -0.1628862032267694 [Eh]
	 Total Energy              =     -75.9302107441394867 [Eh]

	 ================> DF-SCS-MP2 Energies <==================
	-----------------------------------------------------------
	 SCS Same-Spin Scale       =       0.3333333333333333 [-]
	 SCS Opposite-Spin Scale   =       1.2000000000000000 [-]
	 SCS Same-Spin Energy      =      -0.0122780506212923 [Eh]
	 SCS Opposite-Spin Energy  =      -0.1512624616354709 [Eh]
	 SCS Correlation Energy    =      -0.1635405122567633 [Eh]
	 SCS Total Energy          =     -75.9308650531694695 [Eh]
	-----------------------------------------------------------

  -Total Gradient:
     Atom            X                  Y                   Z
    ------   -----------------  -----------------  -----------------
       1       -0.025304886980    -0.015312803394     0.000000000000
       2        0.038309322696    -0.095617668951     0.000000000000
       3       -0.013004435716     0.110930472345    -0.000000000000

*** Psi4 exiting successfully. Buy a developer a beer!
