                               Psi4 1.2a1.dev429

  ==> Input File <==

--------------------------------------------------------------------------
# density-fitted hartree fock energies and gradients with 6-31g
molecule h20 {
0 1
O 0.0000000000 0.0000000000 0.0000000000
H 0.0000000000 0.0000000000 1.4000000000
H 0.0000000000 1.4000000000 0.0000000000
}

set basis 6-31g

gradient('hf')
--------------------------------------------------------------------------

    Molecular point group: c2v
  Charge       = 0
  Multiplicity = 1
  Basis Set: 6-31G
    Blend: 6-31G
  Basis Set: (6-31G AUX)
    Blend: CC-PVDZ-JKFIT

    Orbital Energies (a.u.)
    -----------------------

    Doubly Occupied:

       1A1   -20.645809     2A1    -1.235791     1B2    -0.524339
       3A1    -0.511267     1B1    -0.506488

  @DF-RHF Final Energy:   -75.81433131087149

   => Energetics <=

    Nuclear Repulsion Energy =              6.3150143786309698
    One-Electron Energy =                -117.4113034688939052
    Two-Electron Energy =                  35.2819577793914192
    Total Energy =                        -75.8143313108715091
    Molecular point group: c2v

    Geometry (in Angstrom), charge = 0, multiplicity = 1:

       Center              X                  Y                   Z               Mass
    ------------   -----------------  -----------------  -----------------  -----------------
           O          0.000000000000     0.000000000000    -0.110790072129    15.994914619560
           H          0.000000000000    -0.989949493661     0.879159421532     1.007825032070
           H         -0.000000000000     0.989949493661     0.879159421532     1.007825032070

  Basis Set: 6-31G
    Blend: 6-31G
  Basis Set: (6-31G AUX)
    Blend: CC-PVDZ-JKFIT

  -Total Gradient:
     Atom            X                  Y                   Z
    ------   -----------------  -----------------  -----------------
       1        0.000000000000     0.000000000000    -0.185938891874
       2        0.000000000000    -0.085078458039     0.092969445937
       3       -0.000000000000     0.085078458039     0.092969445937

*** Psi4 exiting successfully. Buy a developer a beer!
