                               Psi4 1.2a1.dev429

  ==> Input File <==

--------------------------------------------------------------------------
# density-fitted hartree fock energies and gradients with 6-31g
molecule h2o {
0 1
O 0.0000000000 0.0000000000 0.0000000000
H 0.0000000000 0.0000000000 1.2000000000
H 0.0000000000 1.4772116295 -0.2604722665
}

set basis 6-31g

gradient('mp2')
--------------------------------------------------------------------------

    Molecular point group: cs
  Charge       = 0
  Multiplicity = 1
  Basis Set: 6-31G
    Blend: 6-31G
  Basis Set: (6-31G AUX)
    Blend: CC-PVDZ-JKFIT

    Orbital Energies (a.u.)
    -----------------------

    Doubly Occupied:

       1Ap   -20.629607     2Ap    -1.244071     3Ap    -0.564774
       1App   -0.500792     4Ap    -0.490434

  @DF-RHF Final Energy:   -75.83844794052199

   => Energetics <=

    Nuclear Repulsion Energy =              6.6048705336847497
    One-Electron Energy =                -118.0272807989761503
    Two-Electron Energy =                  35.5839623247694092
    Total Energy =                        -75.8384479405220020
  Basis Set: (6-31G AUX)
    Blend: CC-PVDZ-RI
    Molecular point group: cs

    Geometry (in Angstrom), charge = 0, multiplicity = 1:

       Center              X                  Y                   Z               Mass
    ------------   -----------------  -----------------  -----------------  -----------------
           O          0.082660976156     0.052573563615     0.000000000000    15.994914619560
           H          0.082660976156    -1.147426436385     0.000000000000     1.007825032070
           H         -1.394550653344     0.313045830115     0.000000000000     1.007825032070

  Basis Set: 6-31G
    Blend: 6-31G
  Basis Set: (6-31G AUX)
    Blend: CC-PVDZ-JKFIT
  Basis Set: (6-31G AUX)
    Blend: CC-PVDZ-JKFIT
	 Reference Energy          =     -75.8384479405219878 [Eh]
	 Singles Energy            =      -0.0000000000000000 [Eh]
	 Same-Spin Energy          =      -0.0375656945665219 [Eh]
	 Opposite-Spin Energy      =      -0.1305872505020623 [Eh]
	 Correlation Energy        =      -0.1681529450685842 [Eh]
	 Total Energy              =     -76.0066008855905721 [Eh]

	 ================> DF-SCS-MP2 Energies <==================
	-----------------------------------------------------------
	 SCS Same-Spin Scale       =       0.3333333333333333 [-]
	 SCS Opposite-Spin Scale   =       1.2000000000000000 [-]
	 SCS Same-Spin Energy      =      -0.0125218981888406 [Eh]
	 SCS Opposite-Spin Energy  =      -0.1567047006024748 [Eh]
	 SCS Correlation Energy    =      -0.1692265987913154 [Eh]
	 SCS Total Energy          =     -76.0076745393132995 [Eh]
	-----------------------------------------------------------

  -Total Gradient:
     Atom            X                  Y                   Z
    ------   -----------------  -----------------  -----------------
       1        0.087405455177     0.063488919637     0.000000000000
       2        0.007675078128    -0.086488963857    -0.000000000000
       3       -0.095080533305     0.023000044220    -0.000000000000

*** Psi4 exiting successfully. Buy a developer a beer!
