                               Psi4 1.2a1.dev429

  ==> Input File <==

--------------------------------------------------------------------------
# density-fitted hartree fock energies and gradients with 6-31g
molecule h20 {
0 1
O 0.0000000000 0.0000000000 0.0000000000
H 0.0000000000 0.0000000000 1.2000000000
H 0.0000000000 0.0000000000 -0.9000000000
}

set basis 6-31g

gradient('hf')
--------------------------------------------------------------------------

    Molecular point group: c2v
  Charge       = 0
  Multiplicity = 1
  Basis Set: 6-31G
    Blend: 6-31G
  Basis Set: (6-31G AUX)
    Blend: CC-PVDZ-JKFIT

    Orbital Energies (a.u.)
    -----------------------

    Doubly Occupied:

       1A1   -20.500086     2A1    -1.261168     3A1    -0.697495
       1B1    -0.447390     1B2    -0.447390

  @DF-RHF Final Energy:   -75.88834978485136

   => Energetics <=

    Nuclear Repulsion Energy =              8.4836346139031740
    One-Electron Energy =                -122.0369103322055224
    Two-Electron Energy =                  37.6649259334509878
    Total Energy =                        -75.8883497848513571
    Molecular point group: c2v

    Geometry (in Angstrom), charge = 0, multiplicity = 1:

       Center              X                  Y                   Z               Mass
    ------------   -----------------  -----------------  -----------------  -----------------
           O          0.000000000000     0.000000000000    -0.016787230991    15.994914619560
           H          0.000000000000     0.000000000000     1.183212769009     1.007825032070
           H          0.000000000000     0.000000000000    -0.916787230991     1.007825032070

  Basis Set: 6-31G
    Blend: 6-31G
  Basis Set: (6-31G AUX)
    Blend: CC-PVDZ-JKFIT

  -Total Gradient:
     Atom            X                  Y                   Z
    ------   -----------------  -----------------  -----------------
       1       -0.000000000000     0.000000000000    -0.210512003035
       2        0.000000000000     0.000000000000     0.159181752768
       3        0.000000000000    -0.000000000000     0.051330250268

*** Psi4 exiting successfully. Buy a developer a beer!
