                               Psi4 1.2a1.dev429

  ==> Input File <==

--------------------------------------------------------------------------
# density-fitted hartree fock energies and gradients with 6-31g
molecule h20 {
0 1
O 0.0000000000 0.0000000000 0.0000000000
O 0.0000000000 0.0000000000 1.0757575758
}

set basis 6-31g

gradient('hf')
--------------------------------------------------------------------------

    Molecular point group: d2h
  Charge       = 0
  Multiplicity = 1
  Basis Set: 6-31G
    Blend: 6-31G
  Basis Set: (6-31G AUX)
    Blend: CC-PVDZ-JKFIT

    Orbital Energies (a.u.)
    -----------------------

    Doubly Occupied:

       1Ag   -20.735014     1B1u  -20.733411     2Ag    -1.842269
       2B1u   -1.054110     1B2u   -0.839991     3Ag    -0.766141
       1B3u   -0.727253     1B3g   -0.429506

  @DF-RHF Final Energy:  -149.43015252372902

   => Energetics <=

    Nuclear Repulsion Energy =             31.4823173098029514
    One-Electron Energy =                -267.5695514314963930
    Two-Electron Energy =                  86.6570815979644067
    Total Energy =                       -149.4301525237290207
    Molecular point group: d2h

    Geometry (in Angstrom), charge = 0, multiplicity = 1:

       Center              X                  Y                   Z               Mass
    ------------   -----------------  -----------------  -----------------  -----------------
           O          0.000000000000     0.000000000000    -0.537878787900    15.994914619560
           O          0.000000000000     0.000000000000     0.537878787900    15.994914619560

  Basis Set: 6-31G
    Blend: 6-31G
  Basis Set: (6-31G AUX)
    Blend: CC-PVDZ-JKFIT

  -Total Gradient:
     Atom            X                  Y                   Z
    ------   -----------------  -----------------  -----------------
       1       -0.000000000000     0.000000000000     0.327796390247
       2        0.000000000000     0.000000000000    -0.327796390247

*** Psi4 exiting successfully. Buy a developer a beer!
