                               Psi4 1.2a1.dev429

  ==> Input File <==

--------------------------------------------------------------------------
# density-fitted hartree fock energies and gradients with 6-31g
molecule h20 {
0 1
O 0.0000000000 0.0000000000 0.0000000000
H 0.0000000000 0.0000000000 0.7000000000
H 0.0000000000 0.8000000000 0.0000000000
}

set basis 6-31g

gradient('hf')
--------------------------------------------------------------------------

    Molecular point group: cs
  Charge       = 0
  Multiplicity = 1
  Basis Set: 6-31G
    Blend: 6-31G
  Basis Set: (6-31G AUX)
    Blend: CC-PVDZ-JKFIT

    Orbital Energies (a.u.)
    -----------------------

    Doubly Occupied:

       1Ap   -20.528550     2Ap    -1.533550     3Ap    -0.798884
       4Ap    -0.619411     1App   -0.523585

  @DF-RHF Final Energy:   -75.79786106214405

   => Energetics <=

    Nuclear Repulsion Energy =             11.8373196558364508
    One-Electron Energy =                -127.2624026450566390
    Two-Electron Energy =                  39.6272219270761212
    Total Energy =                        -75.7978610621440652
    Molecular point group: cs

    Geometry (in Angstrom), charge = 0, multiplicity = 1:

       Center              X                  Y                   Z               Mass
    ------------   -----------------  -----------------  -----------------  -----------------
           O          0.044765949309     0.039170205645     0.000000000000    15.994914619560
           H          0.044765949309    -0.660829794355     0.000000000000     1.007825032070
           H         -0.755234050691     0.039170205645     0.000000000000     1.007825032070

  Basis Set: 6-31G
    Blend: 6-31G
  Basis Set: (6-31G AUX)
    Blend: CC-PVDZ-JKFIT

  -Total Gradient:
     Atom            X                  Y                   Z
    ------   -----------------  -----------------  -----------------
       1       -0.218257845268    -0.667612383387     0.000000000000
       2       -0.090523939407     0.746820828796     0.000000000000
       3        0.308781784675    -0.079208445409     0.000000000000

*** Psi4 exiting successfully. Buy a developer a beer!
