                               Psi4 1.2a1.dev429

  ==> Input File <==

--------------------------------------------------------------------------
# density-fitted hartree fock energies and gradients with 6-31g
molecule h2o {
0 1
O 0.0000000000 0.0000000000 0.0000000000
H 0.0000000000 0.0000000000 1.1000000000
H 0.0000000000 0.5785088487 -0.6894399988
}

set basis 6-31g

gradient('mp2')
--------------------------------------------------------------------------

    Molecular point group: cs
  Charge       = 0
  Multiplicity = 1
  Basis Set: 6-31G
    Blend: 6-31G
  Basis Set: (6-31G AUX)
    Blend: CC-PVDZ-JKFIT

    Orbital Energies (a.u.)
    -----------------------

    Doubly Occupied:

       1Ap   -20.532781     2Ap    -1.306545     3Ap    -0.725336
       4Ap    -0.490242     1App   -0.476976

  @DF-RHF Final Energy:   -75.94516660391497

   => Energetics <=

    Nuclear Repulsion Energy =              8.8337419199046607
    One-Electron Energy =                -122.4940578589763618
    Two-Electron Energy =                  37.7151493351567311
    Total Energy =                        -75.9451666039149700
  Basis Set: (6-31G AUX)
    Blend: CC-PVDZ-RI
    Molecular point group: cs

    Geometry (in Angstrom), charge = 0, multiplicity = 1:

       Center              X                  Y                   Z               Mass
    ------------   -----------------  -----------------  -----------------  -----------------
           O          0.032371872245     0.022973885252     0.000000000000    15.994914619560
           H          0.032371872245    -1.077026114748     0.000000000000     1.007825032070
           H         -0.546136976455     0.712413884052     0.000000000000     1.007825032070

  Basis Set: 6-31G
    Blend: 6-31G
  Basis Set: (6-31G AUX)
    Blend: CC-PVDZ-JKFIT
  Basis Set: (6-31G AUX)
    Blend: CC-PVDZ-JKFIT
	 Reference Energy          =     -75.9451666039149700 [Eh]
	 Singles Energy            =      -0.0000000000000000 [Eh]
	 Same-Spin Energy          =      -0.0311292882310869 [Eh]
	 Opposite-Spin Energy      =      -0.0992129869694356 [Eh]
	 Correlation Energy        =      -0.1303422752005225 [Eh]
	 Total Energy              =     -76.0755088791154890 [Eh]

	 ================> DF-SCS-MP2 Energies <==================
	-----------------------------------------------------------
	 SCS Same-Spin Scale       =       0.3333333333333333 [-]
	 SCS Opposite-Spin Scale   =       1.2000000000000000 [-]
	 SCS Same-Spin Energy      =      -0.0103764294103623 [Eh]
	 SCS Opposite-Spin Energy  =      -0.1190555843633227 [Eh]
	 SCS Correlation Energy    =      -0.1294320137736850 [Eh]
	 SCS Total Energy          =     -76.0745986176886504 [Eh]
	-----------------------------------------------------------

  -Total Gradient:
     Atom            X                  Y                   Z
    ------   -----------------  -----------------  -----------------
       1       -0.109376475605     0.136587905407     0.000000000000
       2        0.030450732722    -0.100428116552     0.000000000000
       3        0.078925742883    -0.036159788856    -0.000000000000

*** Psi4 exiting successfully. Buy a developer a beer!
