                               Psi4 1.2a1.dev429

  ==> Input File <==

--------------------------------------------------------------------------
# density-fitted hartree fock energies and gradients with 6-31g
molecule h20 {
0 1
O 0.0000000000 0.0000000000 0.0000000000
H 0.0000000000 0.0000000000 1.3000000000
H 0.0000000000 0.6062177826 -0.3500000000
}

set basis 6-31g

gradient('hf')
--------------------------------------------------------------------------

    Molecular point group: cs
  Charge       = 0
  Multiplicity = 1
  Basis Set: 6-31G
    Blend: 6-31G
  Basis Set: (6-31G AUX)
    Blend: CC-PVDZ-JKFIT

    Orbital Energies (a.u.)
    -----------------------

    Doubly Occupied:

       1Ap   -20.546885     2Ap    -1.404068     3Ap    -0.717378
       4Ap    -0.511987     1App   -0.495818

  @DF-RHF Final Energy:   -75.78667767505522

   => Energetics <=

    Nuclear Repulsion Energy =              9.6052530529324045
    One-Electron Energy =                -123.4315894487661751
    Two-Electron Energy =                  38.0396587207785473
    Total Energy =                        -75.7866776750552305
    Molecular point group: cs

    Geometry (in Angstrom), charge = 0, multiplicity = 1:

       Center              X                  Y                   Z               Mass
    ------------   -----------------  -----------------  -----------------  -----------------
           O          0.033922393158     0.053159564804     0.000000000000    15.994914619560
           H          0.033922393158    -1.246840435196     0.000000000000     1.007825032070
           H         -0.572295389442     0.403159564804     0.000000000000     1.007825032070

  Basis Set: 6-31G
    Blend: 6-31G
  Basis Set: (6-31G AUX)
    Blend: CC-PVDZ-JKFIT

  -Total Gradient:
     Atom            X                  Y                   Z
    ------   -----------------  -----------------  -----------------
       1       -0.670780023909     0.493667905022     0.000000000000
       2        0.014328493082    -0.145392087109     0.000000000000
       3        0.656451530827    -0.348275817913     0.000000000000

*** Psi4 exiting successfully. Buy a developer a beer!
