                               Psi4 1.2.1 release

  ==> Input File <==

--------------------------------------------------------------------------
# density fitted hartree fock
molecule h2o {
0 1
H 0.0000000000 0.0000000000 1.0250000000
H 0.0000000000 0.9469765208 -0.3922505182
O 0.0000000000 0.0000000000 0.0000000000
}

set basis 6-31g
energy('hf')

--------------------------------------------------------------------------

    Molecular point group: c2v

    Geometry (in Angstrom), charge = 0, multiplicity = 1:

       Center              X                  Y                   Z               Mass
    ------------   -----------------  -----------------  -----------------  -----------------
         H            0.000000000000    -0.852256352614     0.505728502302     1.007825032070
         H           -0.000000000000     0.852256352614     0.505728502302     1.007825032070
         O            0.000000000000     0.000000000000    -0.063730986526    15.994914619560

  Charge       = 0
  Multiplicity = 1
  Basis Set: 6-31G
    Blend: 6-31G
  Basis Set: (6-31G AUX)
    Blend: CC-PVDZ-JKFIT

    Orbital Energies [Eh]
    ---------------------

    Doubly Occupied:

       1A1   -20.566824     2A1    -1.315012     1B2    -0.684951
       3A1    -0.535472     1B1    -0.493601

  @DF-RHF Final Energy:   -75.97516254632734

   => Energetics <=

    Nuclear Repulsion Energy =              8.5707837523490138
    One-Electron Energy =                -121.9001685213476804
    Two-Electron Energy =                  37.3542222226713250
    Total Energy =                        -75.9751625463273399

  Dipole Moment: [D]
     X:     0.0000      Y:     0.0000      Z:     2.5067     Total:     2.5067

*** Psi4 exiting successfully. Buy a developer a beer!
