                               Psi4 1.2a1.dev429

  ==> Input File <==

--------------------------------------------------------------------------
# density-fitted hartree fock energies and gradients with 6-31g
molecule h20 {
0 1
O 0.0000000000 0.0000000000 0.0000000000
O 0.0000000000 0.0000000000 1.1959595960
}

set basis 6-31g

gradient('hf')
--------------------------------------------------------------------------

    Molecular point group: d2h
  Charge       = 0
  Multiplicity = 1
  Basis Set: 6-31G
    Blend: 6-31G
  Basis Set: (6-31G AUX)
    Blend: CC-PVDZ-JKFIT

    Orbital Energies (a.u.)
    -----------------------

    Doubly Occupied:

       1Ag   -20.755730     1B1u  -20.754846     2Ag    -1.706525
       2B1u   -1.100830     1B3u   -0.787749     3Ag    -0.731295
       1B2u   -0.662769     1B2g   -0.483525

  @DF-RHF Final Energy:  -149.46156681922190

   => Energetics <=

    Nuclear Repulsion Energy =             28.3181317019676300
    One-Electron Energy =                -261.5928580157815304
    Two-Electron Energy =                  83.8131594945920284
    Total Energy =                       -149.4615668192219005
    Molecular point group: d2h

    Geometry (in Angstrom), charge = 0, multiplicity = 1:

       Center              X                  Y                   Z               Mass
    ------------   -----------------  -----------------  -----------------  -----------------
           O          0.000000000000     0.000000000000    -0.597979798000    15.994914619560
           O          0.000000000000     0.000000000000     0.597979798000    15.994914619560

  Basis Set: 6-31G
    Blend: 6-31G
  Basis Set: (6-31G AUX)
    Blend: CC-PVDZ-JKFIT

  -Total Gradient:
     Atom            X                  Y                   Z
    ------   -----------------  -----------------  -----------------
       1        0.000000000000     0.000000000000    -0.004587470265
       2       -0.000000000000     0.000000000000     0.004587470265

*** Psi4 exiting successfully. Buy a developer a beer!
