                               Psi4 1.2a1.dev429

  ==> Input File <==

--------------------------------------------------------------------------
# density-fitted hartree fock energies and gradients with 6-31g
molecule h2o {
0 1
O 0.0000000000 0.0000000000 0.0000000000
H 0.0000000000 0.0000000000 1.4000000000
H 0.0000000000 1.1258330249 -0.6500000000
}

set basis 6-31g

gradient('mp2')
--------------------------------------------------------------------------

    Molecular point group: cs
  Charge       = 0
  Multiplicity = 1
  Basis Set: 6-31G
    Blend: 6-31G
  Basis Set: (6-31G AUX)
    Blend: CC-PVDZ-JKFIT

    Orbital Energies (a.u.)
    -----------------------

    Doubly Occupied:

       1Ap   -20.612147     2Ap    -1.221944     3Ap    -0.555121
       1App   -0.485980     4Ap    -0.477750

  @DF-RHF Final Energy:   -75.82933280593551

   => Energetics <=

    Nuclear Repulsion Energy =              6.5066047291455575
    One-Electron Energy =                -117.9659889961249917
    Two-Electron Energy =                  35.6300514610439336
    Total Energy =                        -75.8293328059355076
  Basis Set: (6-31G AUX)
    Blend: CC-PVDZ-RI
    Molecular point group: cs

    Geometry (in Angstrom), charge = 0, multiplicity = 1:

       Center              X                  Y                   Z               Mass
    ------------   -----------------  -----------------  -----------------  -----------------
           O          0.062998730154     0.041968077477     0.000000000000    15.994914619560
           H          0.062998730154    -1.358031922523     0.000000000000     1.007825032070
           H         -1.062834294746     0.691968077477     0.000000000000     1.007825032070

  Basis Set: 6-31G
    Blend: 6-31G
  Basis Set: (6-31G AUX)
    Blend: CC-PVDZ-JKFIT
  Basis Set: (6-31G AUX)
    Blend: CC-PVDZ-JKFIT
	 Reference Energy          =     -75.8293328059355076 [Eh]
	 Singles Energy            =      -0.0000000000000000 [Eh]
	 Same-Spin Energy          =      -0.0370212673997274 [Eh]
	 Opposite-Spin Energy      =      -0.1276091611291889 [Eh]
	 Correlation Energy        =      -0.1646304285289164 [Eh]
	 Total Energy              =     -75.9939632344644309 [Eh]

	 ================> DF-SCS-MP2 Energies <==================
	-----------------------------------------------------------
	 SCS Same-Spin Scale       =       0.3333333333333333 [-]
	 SCS Opposite-Spin Scale   =       1.2000000000000000 [-]
	 SCS Same-Spin Energy      =      -0.0123404224665758 [Eh]
	 SCS Opposite-Spin Energy  =      -0.1531309933550267 [Eh]
	 SCS Correlation Energy    =      -0.1654714158216025 [Eh]
	 SCS Total Energy          =     -75.9948042217571071 [Eh]
	-----------------------------------------------------------

  -Total Gradient:
     Atom            X                  Y                   Z
    ------   -----------------  -----------------  -----------------
       1        0.052961811514     0.031038469279    -0.000000000000
       2        0.022638400921    -0.102837660776     0.000000000000
       3       -0.075600212435     0.071799191497    -0.000000000000

*** Psi4 exiting successfully. Buy a developer a beer!
