                               Psi4 1.2a1.dev429

  ==> Input File <==

--------------------------------------------------------------------------
# density-fitted hartree fock energies and gradients with 6-31g
molecule h20 {
0 1
O 0.0000000000 0.0000000000 0.0000000000
H 0.0000000000 0.0000000000 1.2000000000
H 0.0000000000 0.0000000000 -1.4000000000
}

set basis 6-31g

gradient('hf')
--------------------------------------------------------------------------

    Molecular point group: c2v
  Charge       = 0
  Multiplicity = 1
  Basis Set: 6-31G
    Blend: 6-31G
  Basis Set: (6-31G AUX)
    Blend: CC-PVDZ-JKFIT

    Orbital Energies (a.u.)
    -----------------------

    Doubly Occupied:

       1A1   -20.504011     2A1    -1.160302     3A1    -0.557555
       1B2    -0.414409     1B1    -0.414409

  @DF-RHF Final Energy:   -75.78733091526877

   => Energetics <=

    Nuclear Repulsion Energy =              6.7552475162496330
    One-Electron Energy =                -118.9837852270459706
    Two-Electron Energy =                  36.4412067955275631
    Total Energy =                        -75.7873309152687682
    Molecular point group: c2v

    Geometry (in Angstrom), charge = 0, multiplicity = 1:

       Center              X                  Y                   Z               Mass
    ------------   -----------------  -----------------  -----------------  -----------------
           O          0.000000000000     0.000000000000     0.011191487327    15.994914619560
           H          0.000000000000     0.000000000000     1.211191487327     1.007825032070
           H          0.000000000000     0.000000000000    -1.388808512673     1.007825032070

  Basis Set: 6-31G
    Blend: 6-31G
  Basis Set: (6-31G AUX)
    Blend: CC-PVDZ-JKFIT

  -Total Gradient:
     Atom            X                  Y                   Z
    ------   -----------------  -----------------  -----------------
       1        0.000000000000    -0.000000000000     0.017235739679
       2        0.000000000000     0.000000000000     0.130111644757
       3       -0.000000000000     0.000000000000    -0.147347384436

*** Psi4 exiting successfully. Buy a developer a beer!
