                               Psi4 1.2a1.dev429

  ==> Input File <==

--------------------------------------------------------------------------
# density-fitted hartree fock energies and gradients with 6-31g
molecule h20 {
0 1
O 0.0000000000 0.0000000000 0.0000000000
H 0.0000000000 0.0000000000 0.7000000000
H 0.0000000000 1.0336618829 -0.3762221577
}

set basis 6-31g

gradient('hf')
--------------------------------------------------------------------------

    Molecular point group: cs
  Charge       = 0
  Multiplicity = 1
  Basis Set: 6-31G
    Blend: 6-31G
  Basis Set: (6-31G AUX)
    Blend: CC-PVDZ-JKFIT

    Orbital Energies (a.u.)
    -----------------------

    Doubly Occupied:

       1Ap   -20.544471     2Ap    -1.431106     3Ap    -0.754098
       4Ap    -0.552471     1App   -0.506280

  @DF-RHF Final Energy:   -75.83937834463103

   => Energetics <=

    Nuclear Repulsion Energy =             10.2509259235167889
    One-Electron Energy =                -124.6037555394581062
    Two-Electron Energy =                  38.5134512713102879
    Total Energy =                        -75.8393783446310294
    Molecular point group: cs

    Geometry (in Angstrom), charge = 0, multiplicity = 1:

       Center              X                  Y                   Z               Mass
    ------------   -----------------  -----------------  -----------------  -----------------
           O          0.057841069316     0.018117778095     0.000000000000    15.994914619560
           H          0.057841069316    -0.681882221905     0.000000000000     1.007825032070
           H         -0.975820813584     0.394339935795     0.000000000000     1.007825032070

  Basis Set: 6-31G
    Blend: 6-31G
  Basis Set: (6-31G AUX)
    Blend: CC-PVDZ-JKFIT

  -Total Gradient:
     Atom            X                  Y                   Z
    ------   -----------------  -----------------  -----------------
       1        0.106353901798    -0.774203238975     0.000000000000
       2       -0.004875661343     0.740569996645     0.000000000000
       3       -0.101478240455     0.033633242330     0.000000000000

*** Psi4 exiting successfully. Buy a developer a beer!
