                               Psi4 1.2a1.dev429

  ==> Input File <==

--------------------------------------------------------------------------
# density-fitted hartree fock energies and gradients with 6-31g
molecule h2o {
0 1
O 0.0000000000 0.0000000000 0.0000000000
H 0.0000000000 0.0000000000 1.2000000000
H 0.0000000000 0.3078181290 -0.8457233587
}

set basis 6-31g

gradient('mp2')
--------------------------------------------------------------------------

    Molecular point group: cs
  Charge       = 0
  Multiplicity = 1
  Basis Set: 6-31G
    Blend: 6-31G
  Basis Set: (6-31G AUX)
    Blend: CC-PVDZ-JKFIT

    Orbital Energies (a.u.)
    -----------------------

    Doubly Occupied:

       1Ap   -20.512035     2Ap    -1.271795     3Ap    -0.698273
       4Ap    -0.456737     1App   -0.455656

  @DF-RHF Final Energy:   -75.89818121451566

   => Energetics <=

    Nuclear Repulsion Energy =              8.4874408126547269
    One-Electron Energy =                -121.9822492034652726
    Two-Electron Energy =                  37.5966271762948878
    Total Energy =                        -75.8981812145156596
  Basis Set: (6-31G AUX)
    Blend: CC-PVDZ-RI
    Molecular point group: cs

    Geometry (in Angstrom), charge = 0, multiplicity = 1:

       Center              X                  Y                   Z               Mass
    ------------   -----------------  -----------------  -----------------  -----------------
           O          0.017224713449     0.019824412707     0.000000000000    15.994914619560
           H          0.017224713449    -1.180175587293     0.000000000000     1.007825032070
           H         -0.290593415551     0.865547771407     0.000000000000     1.007825032070

  Basis Set: 6-31G
    Blend: 6-31G
  Basis Set: (6-31G AUX)
    Blend: CC-PVDZ-JKFIT
  Basis Set: (6-31G AUX)
    Blend: CC-PVDZ-JKFIT
	 Reference Energy          =     -75.8981812145156596 [Eh]
	 Singles Energy            =      -0.0000000000000000 [Eh]
	 Same-Spin Energy          =      -0.0317750191532038 [Eh]
	 Opposite-Spin Energy      =      -0.1002369706355743 [Eh]
	 Correlation Energy        =      -0.1320119897887781 [Eh]
	 Total Energy              =     -76.0301932043044388 [Eh]

	 ================> DF-SCS-MP2 Energies <==================
	-----------------------------------------------------------
	 SCS Same-Spin Scale       =       0.3333333333333333 [-]
	 SCS Opposite-Spin Scale   =       1.2000000000000000 [-]
	 SCS Same-Spin Energy      =      -0.0105916730510679 [Eh]
	 SCS Opposite-Spin Energy  =      -0.1202843647626892 [Eh]
	 SCS Correlation Energy    =      -0.1308760378137571 [Eh]
	 SCS Total Energy          =     -76.0290572523294230 [Eh]
	-----------------------------------------------------------

  -Total Gradient:
     Atom            X                  Y                   Z
    ------   -----------------  -----------------  -----------------
       1       -0.083285880565     0.192090080348     0.000000000000
       2        0.025923366877    -0.135547676618     0.000000000000
       3        0.057362513688    -0.056542403729    -0.000000000000

*** Psi4 exiting successfully. Buy a developer a beer!
