                               Psi4 1.2a1.dev429

  ==> Input File <==

--------------------------------------------------------------------------
# density-fitted hartree fock energies and gradients with 6-31g
molecule h20 {
0 1
O 0.0000000000 0.0000000000 0.0000000000
H 0.0000000000 0.0000000000 1.2000000000
H 0.0000000000 0.3078181290 -0.8457233587
}

set basis 6-31g

gradient('hf')
--------------------------------------------------------------------------

    Molecular point group: cs
  Charge       = 0
  Multiplicity = 1
  Basis Set: 6-31G
    Blend: 6-31G
  Basis Set: (6-31G AUX)
    Blend: CC-PVDZ-JKFIT

    Orbital Energies (a.u.)
    -----------------------

    Doubly Occupied:

       1Ap   -20.512035     2Ap    -1.271795     3Ap    -0.698273
       4Ap    -0.456737     1App   -0.455656

  @DF-RHF Final Energy:   -75.89818121451572

   => Energetics <=

    Nuclear Repulsion Energy =              8.4874408126547269
    One-Electron Energy =                -121.9822492230655513
    Two-Electron Energy =                  37.5966271958951168
    Total Energy =                        -75.8981812145157164
    Molecular point group: cs

    Geometry (in Angstrom), charge = 0, multiplicity = 1:

       Center              X                  Y                   Z               Mass
    ------------   -----------------  -----------------  -----------------  -----------------
           O          0.017224713449     0.019824412707     0.000000000000    15.994914619560
           H          0.017224713449    -1.180175587293     0.000000000000     1.007825032070
           H         -0.290593415551     0.865547771407     0.000000000000     1.007825032070

  Basis Set: 6-31G
    Blend: 6-31G
  Basis Set: (6-31G AUX)
    Blend: CC-PVDZ-JKFIT

  -Total Gradient:
     Atom            X                  Y                   Z
    ------   -----------------  -----------------  -----------------
       1       -0.070478361736     0.194106036631     0.000000000000
       2        0.022969804597    -0.153122970072     0.000000000000
       3        0.047508557139    -0.040983066559     0.000000000000

*** Psi4 exiting successfully. Buy a developer a beer!
