                               Psi4 1.2a1.dev429

  ==> Input File <==

--------------------------------------------------------------------------
# density-fitted hartree fock energies and gradients with 6-31g
molecule h2o {
0 1
O 0.0000000000 0.0000000000 0.0000000000
H 0.0000000000 0.0000000000 1.0000000000
H 0.0000000000 0.6128355545 -0.5142300877
}

set basis 6-31g

gradient('mp2')
--------------------------------------------------------------------------

    Molecular point group: cs
  Charge       = 0
  Multiplicity = 1
  Basis Set: 6-31G
    Blend: 6-31G
  Basis Set: (6-31G AUX)
    Blend: CC-PVDZ-JKFIT

    Orbital Energies (a.u.)
    -----------------------

    Doubly Occupied:

       1Ap   -20.528976     2Ap    -1.371928     3Ap    -0.783269
       4Ap    -0.521699     1App   -0.493878

  @DF-RHF Final Energy:   -75.94222752569954

   => Energetics <=

    Nuclear Repulsion Energy =              9.8491343722259241
    One-Electron Energy =                -124.1832244364305211
    Two-Electron Energy =                  38.3918625385050660
    Total Energy =                        -75.9422275256995363
  Basis Set: (6-31G AUX)
    Blend: CC-PVDZ-RI
    Molecular point group: cs

    Geometry (in Angstrom), charge = 0, multiplicity = 1:

       Center              X                  Y                   Z               Mass
    ------------   -----------------  -----------------  -----------------  -----------------
           O          0.034292706709     0.027182439087     0.000000000000    15.994914619560
           H          0.034292706709    -0.972817560913     0.000000000000     1.007825032070
           H         -0.578542847791     0.541412526787     0.000000000000     1.007825032070

  Basis Set: 6-31G
    Blend: 6-31G
  Basis Set: (6-31G AUX)
    Blend: CC-PVDZ-JKFIT
  Basis Set: (6-31G AUX)
    Blend: CC-PVDZ-JKFIT
	 Reference Energy          =     -75.9422275256995363 [Eh]
	 Singles Energy            =      -0.0000000000000000 [Eh]
	 Same-Spin Energy          =      -0.0292444540280935 [Eh]
	 Opposite-Spin Energy      =      -0.0934490311702468 [Eh]
	 Correlation Energy        =      -0.1226934851983403 [Eh]
	 Total Energy              =     -76.0649210108978764 [Eh]

	 ================> DF-SCS-MP2 Energies <==================
	-----------------------------------------------------------
	 SCS Same-Spin Scale       =       0.3333333333333333 [-]
	 SCS Opposite-Spin Scale   =       1.2000000000000000 [-]
	 SCS Same-Spin Energy      =      -0.0097481513426978 [Eh]
	 SCS Opposite-Spin Energy  =      -0.1121388374042961 [Eh]
	 SCS Correlation Energy    =      -0.1218869887469940 [Eh]
	 SCS Total Energy          =     -76.0641145144465298 [Eh]
	-----------------------------------------------------------

  -Total Gradient:
     Atom            X                  Y                   Z
    ------   -----------------  -----------------  -----------------
       1       -0.272505246005     0.221911578463     0.000000000000
       2        0.020525676613    -0.043968574410    -0.000000000000
       3        0.251979569392    -0.177943004053    -0.000000000000

*** Psi4 exiting successfully. Buy a developer a beer!
