                               Psi4 1.2a1.dev429

  ==> Input File <==

--------------------------------------------------------------------------
# density-fitted hartree fock energies and gradients with 6-31g
molecule h2o {
0 1
O 0.0000000000 0.0000000000 0.0000000000
H 0.0000000000 0.0000000000 1.0000000000
H 0.0000000000 1.0832885283 -0.1910129954
}

set basis 6-31g

gradient('mp2')
--------------------------------------------------------------------------

    Molecular point group: cs
  Charge       = 0
  Multiplicity = 1
  Basis Set: 6-31G
    Blend: 6-31G
  Basis Set: (6-31G AUX)
    Blend: CC-PVDZ-JKFIT

    Orbital Energies (a.u.)
    -----------------------

    Doubly Occupied:

       1Ap   -20.582022     2Ap    -1.319096     3Ap    -0.656341
       4Ap    -0.554209     1App   -0.500235

  @DF-RHF Final Energy:   -75.96504216764700

   => Energetics <=

    Nuclear Repulsion Energy =              8.4106653741558457
    One-Electron Energy =                -121.5276085169709290
    Two-Electron Energy =                  37.1519009751680898
    Total Energy =                        -75.9650421676469989
  Basis Set: (6-31G AUX)
    Blend: CC-PVDZ-RI
    Molecular point group: cs

    Geometry (in Angstrom), charge = 0, multiplicity = 1:

       Center              X                  Y                   Z               Mass
    ------------   -----------------  -----------------  -----------------  -----------------
           O          0.060618049181     0.045268839049     0.000000000000    15.994914619560
           H          0.060618049181    -0.954731160951     0.000000000000     1.007825032070
           H         -1.022670479119     0.236281834449     0.000000000000     1.007825032070

  Basis Set: 6-31G
    Blend: 6-31G
  Basis Set: (6-31G AUX)
    Blend: CC-PVDZ-JKFIT
  Basis Set: (6-31G AUX)
    Blend: CC-PVDZ-JKFIT
	 Reference Energy          =     -75.9650421676469989 [Eh]
	 Singles Energy            =      -0.0000000000000000 [Eh]
	 Same-Spin Energy          =      -0.0320293336885463 [Eh]
	 Opposite-Spin Energy      =      -0.1057197881027415 [Eh]
	 Correlation Energy        =      -0.1377491217912878 [Eh]
	 Total Energy              =     -76.1027912894382865 [Eh]

	 ================> DF-SCS-MP2 Energies <==================
	-----------------------------------------------------------
	 SCS Same-Spin Scale       =       0.3333333333333333 [-]
	 SCS Opposite-Spin Scale   =       1.2000000000000000 [-]
	 SCS Same-Spin Energy      =      -0.0106764445628488 [Eh]
	 SCS Opposite-Spin Energy  =      -0.1268637457232898 [Eh]
	 SCS Correlation Energy    =      -0.1375401902861386 [Eh]
	 SCS Total Energy          =     -76.1025823579331444 [Eh]
	-----------------------------------------------------------

  -Total Gradient:
     Atom            X                  Y                   Z
    ------   -----------------  -----------------  -----------------
       1        0.079534896324     0.007988053577     0.000000000000
       2       -0.008640945714    -0.012511981455    -0.000000000000
       3       -0.070893950610     0.004523927879    -0.000000000000

*** Psi4 exiting successfully. Buy a developer a beer!
