                               Psi4 1.2a1.dev429

  ==> Input File <==

--------------------------------------------------------------------------
# density-fitted hartree fock energies and gradients with 6-31g
molecule h20 {
0 1
O 0.0000000000 0.0000000000 0.0000000000
H 0.0000000000 0.0000000000 1.3000000000
H 0.0000000000 0.6577848346 -0.2394141003
}

set basis 6-31g

gradient('hf')
--------------------------------------------------------------------------

    Molecular point group: cs
  Charge       = 0
  Multiplicity = 1
  Basis Set: 6-31G
    Blend: 6-31G
  Basis Set: (6-31G AUX)
    Blend: CC-PVDZ-JKFIT

    Orbital Energies (a.u.)
    -----------------------

    Doubly Occupied:

       1Ap   -20.557234     2Ap    -1.415250     3Ap    -0.711394
       4Ap    -0.526039     1App   -0.502873

  @DF-RHF Final Energy:   -75.79072615926087

   => Energetics <=

    Nuclear Repulsion Energy =              9.6203187561909811
    One-Electron Energy =                -123.3965095008220487
    Two-Electron Energy =                  37.9854645853702095
    Total Energy =                        -75.7907261592608563
    Molecular point group: cs

    Geometry (in Angstrom), charge = 0, multiplicity = 1:

       Center              X                  Y                   Z               Mass
    ------------   -----------------  -----------------  -----------------  -----------------
           O          0.036807953202     0.059347668280     0.000000000000    15.994914619560
           H          0.036807953202    -1.240652331720     0.000000000000     1.007825032070
           H         -0.620976881398     0.298761768580     0.000000000000     1.007825032070

  Basis Set: 6-31G
    Blend: 6-31G
  Basis Set: (6-31G AUX)
    Blend: CC-PVDZ-JKFIT

  -Total Gradient:
     Atom            X                  Y                   Z
    ------   -----------------  -----------------  -----------------
       1       -0.707397852497     0.387318896125     0.000000000000
       2        0.004167391715    -0.139600084898     0.000000000000
       3        0.703230460782    -0.247718811228     0.000000000000

*** Psi4 exiting successfully. Buy a developer a beer!
