                               Psi4 1.3.1 release

  ==> Input File <==

--------------------------------------------------------------------------
# density fitted hartree fock
molecule h2o {
0 1
H 0.0000000000 0.0000000000 1.0500000000
H 0.0000000000 0.8476232276 -0.0635205795
O 0.0000000000 0.0000000000 0.0000000000
}

set basis 6-31g
energy('hf')

--------------------------------------------------------------------------

    Molecular point group: cs

    Geometry (in Angstrom), charge = 0, multiplicity = 1:

       Center              X                  Y                   Z               Mass
    ------------   -----------------  -----------------  -----------------  -----------------
         H            0.047430823056    -0.994799140327     0.000000000000     1.007825032230
         H           -0.800192404544     0.118721439173     0.000000000000     1.007825032230
         O            0.047430823056     0.055200859673     0.000000000000    15.994914619570

  Charge       = 0
  Multiplicity = 1
  Basis Set: 6-31G
    Blend: 6-31G
  Basis Set: (6-31G AUX)
    Blend: CC-PVDZ-JKFIT

    Orbital Energies [Eh]
    ---------------------

    Doubly Occupied:

       1Ap   -20.565355     2Ap    -1.383517     3Ap    -0.697995
       4Ap    -0.578156     1App   -0.507555

  @DF-RHF Final Energy:   -75.95471973317393

   => Energetics <=

    Nuclear Repulsion Energy =              9.3904565119497985
    One-Electron Energy =                -123.2251927003807879
    Two-Electron Energy =                  37.8800164552570564
    Total Energy =                        -75.9547197331739312

  Dipole Moment: [D]
     X:    -2.0196      Y:    -1.9111      Z:     0.0000     Total:     2.7804

*** Psi4 exiting successfully. Buy a developer a beer!
