                               Psi4 1.2a1.dev429

  ==> Input File <==

--------------------------------------------------------------------------
# density-fitted hartree fock energies and gradients with 6-31g
molecule h2o {
0 1
O 0.0000000000 0.0000000000 0.0000000000
H 0.0000000000 0.0000000000 0.9000000000
H 0.0000000000 0.1562833599 -0.8863269777
}

set basis 6-31g

gradient('mp2')
--------------------------------------------------------------------------

    Molecular point group: c2v
  Charge       = 0
  Multiplicity = 1
  Basis Set: 6-31G
    Blend: 6-31G
  Basis Set: (6-31G AUX)
    Blend: CC-PVDZ-JKFIT

    Orbital Energies (a.u.)
    -----------------------

    Doubly Occupied:

       1A1   -20.503730     2A1    -1.326556     1B2    -0.811273
       3A1    -0.478673     1B1    -0.477600

  @DF-RHF Final Energy:   -75.94492177823192

   => Energetics <=

    Nuclear Repulsion Energy =              9.7027051414132686
    One-Electron Energy =                -124.0995904095884441
    Two-Electron Energy =                  38.4519634899432532
    Total Energy =                        -75.9449217782319153
  Basis Set: (6-31G AUX)
    Blend: CC-PVDZ-RI
    Molecular point group: c2v

    Geometry (in Angstrom), charge = 0, multiplicity = 1:

       Center              X                  Y                   Z               Mass
    ------------   -----------------  -----------------  -----------------  -----------------
           O         -0.000000000000     0.000000000000    -0.008778621514    15.994914619560
           H          0.000000000000    -0.896575228277     0.069661546959     1.007825032070
           H         -0.000000000000     0.896575228277     0.069661546959     1.007825032070

  Basis Set: 6-31G
    Blend: 6-31G
  Basis Set: (6-31G AUX)
    Blend: CC-PVDZ-JKFIT
  Basis Set: (6-31G AUX)
    Blend: CC-PVDZ-JKFIT
	 Reference Energy          =     -75.9449217782319153 [Eh]
	 Singles Energy            =      -0.0000000000000000 [Eh]
	 Same-Spin Energy          =      -0.0292821429548614 [Eh]
	 Opposite-Spin Energy      =      -0.0921326419175298 [Eh]
	 Correlation Energy        =      -0.1214147848723913 [Eh]
	 Total Energy              =     -76.0663365631043007 [Eh]

	 ================> DF-SCS-MP2 Energies <==================
	-----------------------------------------------------------
	 SCS Same-Spin Scale       =       0.3333333333333333 [-]
	 SCS Opposite-Spin Scale   =       1.2000000000000000 [-]
	 SCS Same-Spin Energy      =      -0.0097607143182871 [Eh]
	 SCS Opposite-Spin Energy  =      -0.1105591703010358 [Eh]
	 SCS Correlation Energy    =      -0.1203198846193229 [Eh]
	 SCS Total Energy          =     -76.0652416628512356 [Eh]
	-----------------------------------------------------------

  -Total Gradient:
     Atom            X                  Y                   Z
    ------   -----------------  -----------------  -----------------
       1        0.000000000000     0.000000000027     0.036613852354
       2       -0.000000000000     0.053075441144    -0.018306926176
       3        0.000000000000    -0.053075441172    -0.018306926177

*** Psi4 exiting successfully. Buy a developer a beer!
