                               Psi4 1.2a1.dev429

  ==> Input File <==

--------------------------------------------------------------------------
# density-fitted hartree fock energies and gradients with 6-31g
molecule h2o {
0 1
O 0.0000000000 0.0000000000 0.0000000000
H 0.0000000000 0.0000000000 0.8000000000
H 0.0000000000 1.2802500789 -0.2257426310
}

set basis 6-31g

gradient('mp2')
--------------------------------------------------------------------------

    Molecular point group: cs
  Charge       = 0
  Multiplicity = 1
  Basis Set: 6-31G
    Blend: 6-31G
  Basis Set: (6-31G AUX)
    Blend: CC-PVDZ-JKFIT

    Orbital Energies (a.u.)
    -----------------------

    Doubly Occupied:

       1Ap   -20.575769     2Ap    -1.370557     3Ap    -0.679947
       4Ap    -0.534383     1App   -0.504720

  @DF-RHF Final Energy:   -75.88471163268281

   => Energetics <=

    Nuclear Repulsion Energy =              8.8708210194311441
    One-Electron Energy =                -122.1803129848688627
    Two-Electron Energy =                  37.4247803327549065
    Total Energy =                        -75.8847116326828086
  Basis Set: (6-31G AUX)
    Blend: CC-PVDZ-RI
    Molecular point group: cs

    Geometry (in Angstrom), charge = 0, multiplicity = 1:

       Center              X                  Y                   Z               Mass
    ------------   -----------------  -----------------  -----------------  -----------------
           O          0.071639512669     0.032133970339     0.000000000000    15.994914619560
           H          0.071639512669    -0.767866029661     0.000000000000     1.007825032070
           H         -1.208610566231     0.257876601339     0.000000000000     1.007825032070

  Basis Set: 6-31G
    Blend: 6-31G
  Basis Set: (6-31G AUX)
    Blend: CC-PVDZ-JKFIT
  Basis Set: (6-31G AUX)
    Blend: CC-PVDZ-JKFIT
	 Reference Energy          =     -75.8847116326828086 [Eh]
	 Singles Energy            =      -0.0000000000000000 [Eh]
	 Same-Spin Energy          =      -0.0308768667045512 [Eh]
	 Opposite-Spin Energy      =      -0.1048269763519269 [Eh]
	 Correlation Energy        =      -0.1357038430564781 [Eh]
	 Total Energy              =     -76.0204154757392843 [Eh]

	 ================> DF-SCS-MP2 Energies <==================
	-----------------------------------------------------------
	 SCS Same-Spin Scale       =       0.3333333333333333 [-]
	 SCS Opposite-Spin Scale   =       1.2000000000000000 [-]
	 SCS Same-Spin Energy      =      -0.0102922889015171 [Eh]
	 SCS Opposite-Spin Energy  =      -0.1257923716223123 [Eh]
	 SCS Correlation Energy    =      -0.1360846605238293 [Eh]
	 SCS Total Energy          =     -76.0207962932066437 [Eh]
	-----------------------------------------------------------

  -Total Gradient:
     Atom            X                  Y                   Z
    ------   -----------------  -----------------  -----------------
       1        0.115759383251    -0.347616094651    -0.000000000000
       2       -0.007472802460     0.333191840360     0.000000000000
       3       -0.108286580791     0.014424254291    -0.000000000000

*** Psi4 exiting successfully. Buy a developer a beer!
