                               Psi4 1.2a1.dev429

  ==> Input File <==

--------------------------------------------------------------------------
# density-fitted hartree fock energies and gradients with 6-31g
molecule h2o {
0 1
O 0.0000000000 0.0000000000 0.0000000000
H 0.0000000000 0.0000000000 1.5000000000
H 0.0000000000 1.1490666647 -0.9641814145
}

set basis 6-31g

gradient('mp2')
--------------------------------------------------------------------------

    Molecular point group: c2v
  Charge       = 0
  Multiplicity = 1
  Basis Set: 6-31G
    Blend: 6-31G
  Basis Set: (6-31G AUX)
    Blend: CC-PVDZ-JKFIT

    Orbital Energies (a.u.)
    -----------------------

    Doubly Occupied:

       1A1   -20.619414     2A1    -1.197157     1B2    -0.510649
       1B1    -0.481684     3A1    -0.449345

  @DF-RHF Final Energy:   -75.74659555300657

   => Energetics <=

    Nuclear Repulsion Energy =              5.8391843740251037
    One-Electron Energy =                -116.6550629846631040
    Two-Electron Energy =                  35.0692830576314165
    Total Energy =                        -75.7465955530065855
  Basis Set: (6-31G AUX)
    Blend: CC-PVDZ-RI
    Molecular point group: c2v

    Geometry (in Angstrom), charge = 0, multiplicity = 1:

       Center              X                  Y                   Z               Mass
    ------------   -----------------  -----------------  -----------------  -----------------
           O         -0.000000000000     0.000000000000    -0.070945903810    15.994914619560
           H          0.000000000000    -1.359461680546     0.562981488817     1.007825032070
           H         -0.000000000000     1.359461680546     0.562981488817     1.007825032070

  Basis Set: 6-31G
    Blend: 6-31G
  Basis Set: (6-31G AUX)
    Blend: CC-PVDZ-JKFIT
  Basis Set: (6-31G AUX)
    Blend: CC-PVDZ-JKFIT
	 Reference Energy          =     -75.7465955530065713 [Eh]
	 Singles Energy            =      -0.0000000000000000 [Eh]
	 Same-Spin Energy          =      -0.0392434429709672 [Eh]
	 Opposite-Spin Energy      =      -0.1403843393676116 [Eh]
	 Correlation Energy        =      -0.1796277823385788 [Eh]
	 Total Energy              =     -75.9262233353451563 [Eh]

	 ================> DF-SCS-MP2 Energies <==================
	-----------------------------------------------------------
	 SCS Same-Spin Scale       =       0.3333333333333333 [-]
	 SCS Opposite-Spin Scale   =       1.2000000000000000 [-]
	 SCS Same-Spin Energy      =      -0.0130811476569891 [Eh]
	 SCS Opposite-Spin Energy  =      -0.1684612072411339 [Eh]
	 SCS Correlation Energy    =      -0.1815423548981230 [Eh]
	 SCS Total Energy          =     -75.9281379079046985 [Eh]
	-----------------------------------------------------------

  -Total Gradient:
     Atom            X                  Y                   Z
    ------   -----------------  -----------------  -----------------
       1       -0.000000000000    -0.000000000010    -0.028270615200
       2        0.000000000000    -0.095066725997     0.014135307599
       3        0.000000000000     0.095066726008     0.014135307602

*** Psi4 exiting successfully. Buy a developer a beer!
