                               Psi4 1.2a1.dev429

  ==> Input File <==

--------------------------------------------------------------------------
# density-fitted hartree fock energies and gradients with 6-31g
molecule h2o {
0 1
O 0.0000000000 0.0000000000 0.0000000000
H 0.0000000000 0.0000000000 0.9000000000
H 0.0000000000 1.4095389312 -0.5130302150
}

set basis 6-31g

gradient('mp2')
--------------------------------------------------------------------------

    Molecular point group: cs
  Charge       = 0
  Multiplicity = 1
  Basis Set: 6-31G
    Blend: 6-31G
  Basis Set: (6-31G AUX)
    Blend: CC-PVDZ-JKFIT

    Orbital Energies (a.u.)
    -----------------------

    Doubly Occupied:

       1Ap   -20.588324     2Ap    -1.309116     3Ap    -0.641456
       1App   -0.495674     4Ap    -0.487233

  @DF-RHF Final Energy:   -75.86680777967302

   => Energetics <=

    Nuclear Repulsion Energy =              7.7912133858544461
    One-Electron Energy =                -120.2724375597932465
    Two-Electron Energy =                  36.6144163942657670
    Total Energy =                        -75.8668077796730245
  Basis Set: (6-31G AUX)
    Blend: CC-PVDZ-RI
    Molecular point group: cs

    Geometry (in Angstrom), charge = 0, multiplicity = 1:

       Center              X                  Y                   Z               Mass
    ------------   -----------------  -----------------  -----------------  -----------------
           O          0.078874185429     0.021653837224     0.000000000000    15.994914619560
           H          0.078874185429    -0.878346162776     0.000000000000     1.007825032070
           H         -1.330664745771     0.534684052224     0.000000000000     1.007825032070

  Basis Set: 6-31G
    Blend: 6-31G
  Basis Set: (6-31G AUX)
    Blend: CC-PVDZ-JKFIT
  Basis Set: (6-31G AUX)
    Blend: CC-PVDZ-JKFIT
	 Reference Energy          =     -75.8668077796730245 [Eh]
	 Singles Energy            =      -0.0000000000000000 [Eh]
	 Same-Spin Energy          =      -0.0333278201003749 [Eh]
	 Opposite-Spin Energy      =      -0.1159197617900079 [Eh]
	 Correlation Energy        =      -0.1492475818903828 [Eh]
	 Total Energy              =     -76.0160553615634029 [Eh]

	 ================> DF-SCS-MP2 Energies <==================
	-----------------------------------------------------------
	 SCS Same-Spin Scale       =       0.3333333333333333 [-]
	 SCS Opposite-Spin Scale   =       1.2000000000000000 [-]
	 SCS Same-Spin Energy      =      -0.0111092733667916 [Eh]
	 SCS Opposite-Spin Energy  =      -0.1391037141480095 [Eh]
	 SCS Correlation Energy    =      -0.1502129875148011 [Eh]
	 SCS Total Energy          =     -76.0170207671878302 [Eh]
	-----------------------------------------------------------

  -Total Gradient:
     Atom            X                  Y                   Z
    ------   -----------------  -----------------  -----------------
       1        0.079027897323    -0.152656214922    -0.000000000000
       2        0.017405817126     0.106443486150     0.000000000000
       3       -0.096433714449     0.046212728772    -0.000000000000

*** Psi4 exiting successfully. Buy a developer a beer!
