                               Psi4 1.3.1 release

  ==> Input File <==

--------------------------------------------------------------------------
# density fitted hartree fock
molecule h2o {
0 1
H 0.0000000000 0.0000000000 1.2000000000
H 0.0000000000 0.7852976026 -0.3252809175
O 0.0000000000 0.0000000000 0.0000000000
}

set basis 6-31g
energy('hf')

--------------------------------------------------------------------------

    Molecular point group: cs

    Geometry (in Angstrom), charge = 0, multiplicity = 1:

       Center              X                  Y                   Z               Mass
    ------------   -----------------  -----------------  -----------------  -----------------
         H            0.043943240844    -1.151052962360     0.000000000000     1.007825032230
         H           -0.741354361756     0.374227955140     0.000000000000     1.007825032230
         O            0.043943240844     0.048947037640     0.000000000000    15.994914619570

  Charge       = 0
  Multiplicity = 1
  Basis Set: 6-31G
    Blend: 6-31G
  Basis Set: (6-31G AUX)
    Blend: CC-PVDZ-JKFIT

    Orbital Energies [Eh]
    ---------------------

    Doubly Occupied:

       1Ap   -20.563217     2Ap    -1.342893     3Ap    -0.692417
       4Ap    -0.528575     1App   -0.495659

  @DF-RHF Final Energy:   -75.93142077066881

   => Energetics <=

    Nuclear Repulsion Energy =              8.8167954135338658
    One-Electron Energy =                -122.2508982541341709
    Two-Electron Energy =                  37.5026820699314953
    Total Energy =                        -75.9314207706688080

  Dipole Moment: [D]
     X:    -1.9617      Y:    -1.5580      Z:     0.0000     Total:     2.5051

*** Psi4 exiting successfully. Buy a developer a beer!
