                               Psi4 1.2a1.dev429

  ==> Input File <==

--------------------------------------------------------------------------
# density-fitted hartree fock energies and gradients with 6-31g
molecule h2o {
0 1
O 0.0000000000 0.0000000000 0.0000000000
H 0.0000000000 0.0000000000 1.5000000000
H 0.0000000000 1.4772116295 -0.2604722665
}

set basis 6-31g

gradient('mp2')
--------------------------------------------------------------------------

    Molecular point group: c2v
  Charge       = 0
  Multiplicity = 1
  Basis Set: 6-31G
    Blend: 6-31G
  Basis Set: (6-31G AUX)
    Blend: CC-PVDZ-JKFIT

    Orbital Energies (a.u.)
    -----------------------

    Doubly Occupied:

       1A1   -20.649920     2A1    -1.219083     1B2    -0.505423
       1B1    -0.503353     3A1    -0.482763

  @DF-RHF Final Energy:   -75.76688840974752

   => Energetics <=

    Nuclear Repulsion Energy =              5.8748208201425678
    One-Electron Energy =                -116.5623342020520568
    Two-Electron Energy =                  34.9206249721619528
    Total Energy =                        -75.7668884097475370
  Basis Set: (6-31G AUX)
    Blend: CC-PVDZ-RI
    Molecular point group: c2v

    Geometry (in Angstrom), charge = 0, multiplicity = 1:

       Center              X                  Y                   Z               Mass
    ------------   -----------------  -----------------  -----------------  -----------------
           O          0.000000000000     0.000000000000    -0.107906240818    15.994914619560
           H          0.000000000000    -1.149066664672     0.856275173705     1.007825032070
           H         -0.000000000000     1.149066664672     0.856275173705     1.007825032070

  Basis Set: 6-31G
    Blend: 6-31G
  Basis Set: (6-31G AUX)
    Blend: CC-PVDZ-JKFIT
  Basis Set: (6-31G AUX)
    Blend: CC-PVDZ-JKFIT
	 Reference Energy          =     -75.7668884097475228 [Eh]
	 Singles Energy            =      -0.0000000000000000 [Eh]
	 Same-Spin Energy          =      -0.0409619504845403 [Eh]
	 Opposite-Spin Energy      =      -0.1453949457342730 [Eh]
	 Correlation Energy        =      -0.1863568962188134 [Eh]
	 Total Energy              =     -75.9532453059663339 [Eh]

	 ================> DF-SCS-MP2 Energies <==================
	-----------------------------------------------------------
	 SCS Same-Spin Scale       =       0.3333333333333333 [-]
	 SCS Opposite-Spin Scale   =       1.2000000000000000 [-]
	 SCS Same-Spin Energy      =      -0.0136539834948468 [Eh]
	 SCS Opposite-Spin Energy  =      -0.1744739348811276 [Eh]
	 SCS Correlation Energy    =      -0.1881279183759744 [Eh]
	 SCS Total Energy          =     -75.9550163281234916 [Eh]
	-----------------------------------------------------------

  -Total Gradient:
     Atom            X                  Y                   Z
    ------   -----------------  -----------------  -----------------
       1       -0.000000000000     0.000000000002    -0.105003141767
       2        0.000000000000    -0.076065803442     0.052501570884
       3       -0.000000000000     0.076065803440     0.052501570883

*** Psi4 exiting successfully. Buy a developer a beer!
