                               Psi4 1.2a1.dev429

  ==> Input File <==

--------------------------------------------------------------------------
# density-fitted hartree fock energies and gradients with 6-31g
molecule h2o {
0 1
O 0.0000000000 0.0000000000 0.0000000000
H 0.0000000000 0.0000000000 1.3000000000
H 0.0000000000 0.1389185421 -0.7878462024
}

set basis 6-31g

gradient('mp2')
--------------------------------------------------------------------------

    Molecular point group: cs
  Charge       = 0
  Multiplicity = 1
  Basis Set: 6-31G
    Blend: 6-31G
  Basis Set: (6-31G AUX)
    Blend: CC-PVDZ-JKFIT

    Orbital Energies (a.u.)
    -----------------------

    Doubly Occupied:

       1Ap   -20.493215     2Ap    -1.292552     3Ap    -0.694697
       1App   -0.447608     4Ap    -0.447215

  @DF-RHF Final Energy:   -75.83053792112634

   => Energetics <=

    Nuclear Repulsion Energy =              8.8011440583833753
    One-Electron Energy =                -122.5127898770182924
    Two-Electron Energy =                  37.8811078975085849
    Total Energy =                        -75.8305379211263357
  Basis Set: (6-31G AUX)
    Blend: CC-PVDZ-RI
    Molecular point group: cs

    Geometry (in Angstrom), charge = 0, multiplicity = 1:

       Center              X                  Y                   Z               Mass
    ------------   -----------------  -----------------  -----------------  -----------------
           O          0.007773525517     0.028658813677     0.000000000000    15.994914619560
           H          0.007773525517    -1.271341186323     0.000000000000     1.007825032070
           H         -0.131145016583     0.816505016077     0.000000000000     1.007825032070

  Basis Set: 6-31G
    Blend: 6-31G
  Basis Set: (6-31G AUX)
    Blend: CC-PVDZ-JKFIT
  Basis Set: (6-31G AUX)
    Blend: CC-PVDZ-JKFIT
	 Reference Energy          =     -75.8305379211263357 [Eh]
	 Singles Energy            =      -0.0000000000000000 [Eh]
	 Same-Spin Energy          =      -0.0315289297664517 [Eh]
	 Opposite-Spin Energy      =      -0.0992929936293796 [Eh]
	 Correlation Energy        =      -0.1308219233958312 [Eh]
	 Total Energy              =     -75.9613598445221641 [Eh]

	 ================> DF-SCS-MP2 Energies <==================
	-----------------------------------------------------------
	 SCS Same-Spin Scale       =       0.3333333333333333 [-]
	 SCS Opposite-Spin Scale   =       1.2000000000000000 [-]
	 SCS Same-Spin Energy      =      -0.0105096432554839 [Eh]
	 SCS Opposite-Spin Energy  =      -0.1191515923552555 [Eh]
	 SCS Correlation Energy    =      -0.1296612356107394 [Eh]
	 SCS Total Energy          =     -75.9601991567370760 [Eh]
	-----------------------------------------------------------

  -Total Gradient:
     Atom            X                  Y                   Z
    ------   -----------------  -----------------  -----------------
       1       -0.090708796603     0.445215344286     0.000000000000
       2        0.014756655820    -0.152562161229    -0.000000000000
       3        0.075952140784    -0.292653183057    -0.000000000000

*** Psi4 exiting successfully. Buy a developer a beer!
