                               Psi4 1.2.1 release

  ==> Input File <==

--------------------------------------------------------------------------
# density fitted hartree fock
molecule h2o {
0 1
H 0.0000000000 0.0000000000 1.1125000000
H 0.0000000000 0.9055554621 -0.2426428548
O 0.0000000000 0.0000000000 0.0000000000
}

set basis 6-31g
energy('hf')

--------------------------------------------------------------------------

    Molecular point group: cs

    Geometry (in Angstrom), charge = 0, multiplicity = 1:

       Center              X                  Y                   Z               Mass
    ------------   -----------------  -----------------  -----------------  -----------------
         H            0.050672562391    -1.063825023915     0.000000000000     1.007825032070
         H           -0.854882899709     0.291317830885     0.000000000000     1.007825032070
         O            0.050672562391     0.048674976085     0.000000000000    15.994914619560

  Charge       = 0
  Multiplicity = 1
  Basis Set: 6-31G
    Blend: 6-31G
  Basis Set: (6-31G AUX)
    Blend: CC-PVDZ-JKFIT

    Orbital Energies [Eh]
    ---------------------

    Doubly Occupied:

       1Ap   -20.572493     2Ap    -1.329677     3Ap    -0.677467
       4Ap    -0.547179     1App   -0.498597

  @DF-RHF Final Energy:   -75.96547352190123

   => Energetics <=

    Nuclear Repulsion Energy =              8.6456412937452143
    One-Electron Energy =                -121.9713964966877171
    Two-Electron Energy =                  37.3602816810412719
    Total Energy =                        -75.9654735219012309

  Dipole Moment: [D]
     X:    -2.0566      Y:    -1.6504      Z:     0.0000     Total:     2.6369

*** Psi4 exiting successfully. Buy a developer a beer!
