                               Psi4 1.2a1.dev429

  ==> Input File <==

--------------------------------------------------------------------------
# density-fitted hartree fock energies and gradients with 6-31g
molecule h2o {
0 1
O 0.0000000000 0.0000000000 0.0000000000
H 0.0000000000 0.0000000000 1.4000000000
H 0.0000000000 0.9000000000 0.0000000000
}

set basis 6-31g

gradient('mp2')
--------------------------------------------------------------------------

    Molecular point group: cs
  Charge       = 0
  Multiplicity = 1
  Basis Set: 6-31G
    Blend: 6-31G
  Basis Set: (6-31G AUX)
    Blend: CC-PVDZ-JKFIT

    Orbital Energies (a.u.)
    -----------------------

    Doubly Occupied:

       1Ap   -20.601137     2Ap    -1.330252     3Ap    -0.643828
       4Ap    -0.521903     1App   -0.508180

  @DF-RHF Final Energy:   -75.88973407545785

   => Energetics <=

    Nuclear Repulsion Energy =              8.0456189427215730
    One-Electron Energy =                -120.6601063002854346
    Two-Electron Energy =                  36.7247532821060005
    Total Energy =                        -75.8897340754578522
  Basis Set: (6-31G AUX)
    Blend: CC-PVDZ-RI
    Molecular point group: cs

    Geometry (in Angstrom), charge = 0, multiplicity = 1:

       Center              X                  Y                   Z               Mass
    ------------   -----------------  -----------------  -----------------  -----------------
           O          0.050361692973     0.078340411291     0.000000000000    15.994914619560
           H          0.050361692973    -1.321659588709     0.000000000000     1.007825032070
           H         -0.849638307027     0.078340411291     0.000000000000     1.007825032070

  Basis Set: 6-31G
    Blend: 6-31G
  Basis Set: (6-31G AUX)
    Blend: CC-PVDZ-JKFIT
  Basis Set: (6-31G AUX)
    Blend: CC-PVDZ-JKFIT
	 Reference Energy          =     -75.8897340754578522 [Eh]
	 Singles Energy            =      -0.0000000000000000 [Eh]
	 Same-Spin Energy          =      -0.0331108578242241 [Eh]
	 Opposite-Spin Energy      =      -0.1140004929289571 [Eh]
	 Correlation Energy        =      -0.1471113507531812 [Eh]
	 Total Energy              =     -76.0368454262110305 [Eh]

	 ================> DF-SCS-MP2 Energies <==================
	-----------------------------------------------------------
	 SCS Same-Spin Scale       =       0.3333333333333333 [-]
	 SCS Opposite-Spin Scale   =       1.2000000000000000 [-]
	 SCS Same-Spin Energy      =      -0.0110369526080747 [Eh]
	 SCS Opposite-Spin Energy  =      -0.1368005915147486 [Eh]
	 SCS Correlation Energy    =      -0.1478375441228233 [Eh]
	 SCS Total Energy          =     -76.0375716195806746 [Eh]
	-----------------------------------------------------------

  -Total Gradient:
     Atom            X                  Y                   Z
    ------   -----------------  -----------------  -----------------
       1       -0.101999712712     0.116818772144     0.000000000000
       2       -0.010335130293    -0.100741907294    -0.000000000000
       3        0.112334843005    -0.016076864850    -0.000000000000

*** Psi4 exiting successfully. Buy a developer a beer!
