                               Psi4 1.2a1.dev429

  ==> Input File <==

--------------------------------------------------------------------------
# density-fitted hartree fock energies and gradients with 6-31g
molecule h20 {
0 1
O 0.0000000000 0.0000000000 0.0000000000
H 0.0000000000 0.0000000000 0.9000000000
H 0.0000000000 0.3078181290 -0.8457233587
}

set basis 6-31g

gradient('hf')
--------------------------------------------------------------------------

    Molecular point group: c2v
  Charge       = 0
  Multiplicity = 1
  Basis Set: 6-31G
    Blend: 6-31G
  Basis Set: (6-31G AUX)
    Blend: CC-PVDZ-JKFIT

    Orbital Energies (a.u.)
    -----------------------

    Doubly Occupied:

       1A1   -20.507972     2A1    -1.331787     1B2    -0.808364
       3A1    -0.484585     1B1    -0.480188

  @DF-RHF Final Energy:   -75.95023010846889

   => Energetics <=

    Nuclear Repulsion Energy =              9.7061173860722310
    One-Electron Energy =                -124.0869022899690179
    Two-Electron Energy =                  38.4305547954278950
    Total Energy =                        -75.9502301084688867
    Molecular point group: c2v

    Geometry (in Angstrom), charge = 0, multiplicity = 1:

       Center              X                  Y                   Z               Mass
    ------------   -----------------  -----------------  -----------------  -----------------
           O         -0.000000000000     0.000000000000    -0.017490432418    15.994914619560
           H          0.000000000000    -0.886326977708     0.138792927486     1.007825032070
           H         -0.000000000000     0.886326977708     0.138792927486     1.007825032070

  Basis Set: 6-31G
    Blend: 6-31G
  Basis Set: (6-31G AUX)
    Blend: CC-PVDZ-JKFIT

  -Total Gradient:
     Atom            X                  Y                   Z
    ------   -----------------  -----------------  -----------------
       1       -0.000000000000     0.000000000000     0.058000846155
       2       -0.000000000000     0.034066962523    -0.029000423077
       3        0.000000000000    -0.034066962523    -0.029000423077

*** Psi4 exiting successfully. Buy a developer a beer!
