                               Psi4 1.2a1.dev429

  ==> Input File <==

--------------------------------------------------------------------------
# density-fitted hartree fock energies and gradients with 6-31g
molecule h20 {
0 1
O 0.0000000000 0.0000000000 0.0000000000
H 0.0000000000 0.0000000000 1.2000000000
H 0.0000000000 0.7794228634 -0.4500000000
}

set basis 6-31g

gradient('hf')
--------------------------------------------------------------------------

    Molecular point group: cs
  Charge       = 0
  Multiplicity = 1
  Basis Set: 6-31G
    Blend: 6-31G
  Basis Set: (6-31G AUX)
    Blend: CC-PVDZ-JKFIT

    Orbital Energies (a.u.)
    -----------------------

    Doubly Occupied:

       1Ap   -20.560885     2Ap    -1.315949     3Ap    -0.684963
       4Ap    -0.513716     1App   -0.488818

  @DF-RHF Final Energy:   -75.93873677038899

   => Energetics <=

    Nuclear Repulsion Energy =              8.5216327909740031
    One-Electron Energy =                -121.7920778270943032
    Two-Electron Energy =                  37.3317082657313151
    Total Energy =                        -75.9387367703889709
    Molecular point group: cs

    Geometry (in Angstrom), charge = 0, multiplicity = 1:

       Center              X                  Y                   Z               Mass
    ------------   -----------------  -----------------  -----------------  -----------------
           O          0.043614505491     0.041968077477     0.000000000000    15.994914619560
           H          0.043614505491    -1.158031922523     0.000000000000     1.007825032070
           H         -0.735808357909     0.491968077477     0.000000000000     1.007825032070

  Basis Set: 6-31G
    Blend: 6-31G
  Basis Set: (6-31G AUX)
    Blend: CC-PVDZ-JKFIT

  -Total Gradient:
     Atom            X                  Y                   Z
    ------   -----------------  -----------------  -----------------
       1       -0.085641428599     0.148364502837     0.000000000000
       2        0.016072688911    -0.132944496477     0.000000000000
       3        0.069568739688    -0.015420006361     0.000000000000

*** Psi4 exiting successfully. Buy a developer a beer!
