                               Psi4 1.2a1.dev429

  ==> Input File <==

--------------------------------------------------------------------------
# density-fitted hartree fock energies and gradients with 6-31g
molecule h20 {
0 1
O 0.0000000000 0.0000000000 0.0000000000
H 0.0000000000 0.0000000000 1.3000000000
H 0.0000000000 0.1562833599 -0.8863269777
}

set basis 6-31g

gradient('hf')
--------------------------------------------------------------------------

    Molecular point group: cs
  Charge       = 0
  Multiplicity = 1
  Basis Set: 6-31G
    Blend: 6-31G
  Basis Set: (6-31G AUX)
    Blend: CC-PVDZ-JKFIT

    Orbital Energies (a.u.)
    -----------------------

    Doubly Occupied:

       1Ap   -20.499958     2Ap    -1.250871     3Ap    -0.666259
       1App   -0.440979     4Ap    -0.440403

  @DF-RHF Final Energy:   -75.86040722449249

   => Energetics <=

    Nuclear Repulsion Energy =              8.2016958971526694
    One-Electron Energy =                -121.5272670804105104
    Two-Electron Energy =                  37.4651639587653378
    Total Energy =                        -75.8604072244924907
    Molecular point group: cs

    Geometry (in Angstrom), charge = 0, multiplicity = 1:

       Center              X                  Y                   Z               Mass
    ------------   -----------------  -----------------  -----------------  -----------------
           O          0.008745216209     0.023148081933     0.000000000000    15.994914619560
           H          0.008745216209    -1.276851918067     0.000000000000     1.007825032070
           H         -0.147538143691     0.909475059633     0.000000000000     1.007825032070

  Basis Set: 6-31G
    Blend: 6-31G
  Basis Set: (6-31G AUX)
    Blend: CC-PVDZ-JKFIT

  -Total Gradient:
     Atom            X                  Y                   Z
    ------   -----------------  -----------------  -----------------
       1       -0.042735532185     0.216875535477     0.000000000000
       2        0.013525961867    -0.163731811933     0.000000000000
       3        0.029209570318    -0.053143723544     0.000000000000

*** Psi4 exiting successfully. Buy a developer a beer!
