                               Psi4 1.2.1 release

  ==> Input File <==

--------------------------------------------------------------------------
# density fitted hartree fock
molecule h2o {
0 1
H 0.0000000000 0.0000000000 1.1125000000
H 0.0000000000 0.9634532617 -0.5562500000
O 0.0000000000 0.0000000000 0.0000000000
}

set basis 6-31g
energy('hf')

--------------------------------------------------------------------------

    Molecular point group: c2v

    Geometry (in Angstrom), charge = 0, multiplicity = 1:

       Center              X                  Y                   Z               Mass
    ------------   -----------------  -----------------  -----------------  -----------------
         H            0.000000000000    -0.963453261708     0.493997351738     1.007825032070
         H           -0.000000000000     0.963453261708     0.493997351738     1.007825032070
         O           -0.000000000000     0.000000000000    -0.062252648257    15.994914619560

  Charge       = 0
  Multiplicity = 1
  Basis Set: 6-31G
    Blend: 6-31G
  Basis Set: (6-31G AUX)
    Blend: CC-PVDZ-JKFIT

    Orbital Energies [Eh]
    ---------------------

    Doubly Occupied:

       1A1   -20.574723     2A1    -1.274233     1B2    -0.647951
       3A1    -0.509517     1B1    -0.485350

  @DF-RHF Final Energy:   -75.94216147267267

   => Energetics <=

    Nuclear Repulsion Energy =              7.8852637674632211
    One-Electron Energy =                -120.6712966613315672
    Two-Electron Energy =                  36.8438714211956864
    Total Energy =                        -75.9421614726726659

  Dipole Moment: [D]
     X:    -0.0000      Y:     0.0000      Z:     2.3624     Total:     2.3624

*** Psi4 exiting successfully. Buy a developer a beer!
