                               Psi4 1.2a1.dev429

  ==> Input File <==

--------------------------------------------------------------------------
# density-fitted hartree fock energies and gradients with 6-31g
molecule h2o {
0 1
O 0.0000000000 0.0000000000 0.0000000000
H 0.0000000000 0.0000000000 0.9000000000
H 0.0000000000 0.3420201433 -0.9396926208
}

set basis 6-31g

gradient('mp2')
--------------------------------------------------------------------------

    Molecular point group: cs
  Charge       = 0
  Multiplicity = 1
  Basis Set: 6-31G
    Blend: 6-31G
  Basis Set: (6-31G AUX)
    Blend: CC-PVDZ-JKFIT

    Orbital Energies (a.u.)
    -----------------------

    Doubly Occupied:

       1Ap   -20.510858     2Ap    -1.306224     3Ap    -0.768810
       4Ap    -0.475248     1App   -0.471523

  @DF-RHF Final Energy:   -75.94546750014231

   => Energetics <=

    Nuclear Repulsion Energy =              9.2200137532364614
    One-Electron Energy =                -123.2656361016835831
    Two-Electron Energy =                  38.1001548483048040
    Total Energy =                        -75.9454675001423141
  Basis Set: (6-31G AUX)
    Blend: CC-PVDZ-RI
    Molecular point group: cs

    Geometry (in Angstrom), charge = 0, multiplicity = 1:

       Center              X                  Y                   Z               Mass
    ------------   -----------------  -----------------  -----------------  -----------------
           O          0.019138570497    -0.002221097313     0.000000000000    15.994914619560
           H          0.019138570497    -0.902221097313     0.000000000000     1.007825032070
           H         -0.322881572803     0.937471523487     0.000000000000     1.007825032070

  Basis Set: 6-31G
    Blend: 6-31G
  Basis Set: (6-31G AUX)
    Blend: CC-PVDZ-JKFIT
  Basis Set: (6-31G AUX)
    Blend: CC-PVDZ-JKFIT
	 Reference Energy          =     -75.9454675001423141 [Eh]
	 Singles Energy            =      -0.0000000000000000 [Eh]
	 Same-Spin Energy          =      -0.0302727594488519 [Eh]
	 Opposite-Spin Energy      =      -0.0950846454626675 [Eh]
	 Correlation Energy        =      -0.1253574049115194 [Eh]
	 Total Energy              =     -76.0708249050538399 [Eh]

	 ================> DF-SCS-MP2 Energies <==================
	-----------------------------------------------------------
	 SCS Same-Spin Scale       =       0.3333333333333333 [-]
	 SCS Opposite-Spin Scale   =       1.2000000000000000 [-]
	 SCS Same-Spin Energy      =      -0.0100909198162840 [Eh]
	 SCS Opposite-Spin Energy  =      -0.1141015745552010 [Eh]
	 SCS Correlation Energy    =      -0.1241924943714850 [Eh]
	 SCS Total Energy          =     -76.0696599945137990 [Eh]
	-----------------------------------------------------------

  -Total Gradient:
     Atom            X                  Y                   Z
    ------   -----------------  -----------------  -----------------
       1       -0.030409097083    -0.125134317810     0.000000000000
       2        0.027141949949     0.062688755157     0.000000000000
       3        0.003267147134     0.062445562654    -0.000000000000

*** Psi4 exiting successfully. Buy a developer a beer!
