                               Psi4 1.2a1.dev429

  ==> Input File <==

--------------------------------------------------------------------------
# density-fitted hartree fock energies and gradients with 6-31g
molecule h20 {
0 1
O 0.0000000000 0.0000000000 0.0000000000
H 0.0000000000 0.0000000000 1.0000000000
H 0.0000000000 0.4446261863 -1.2216004070
}

set basis 6-31g

gradient('hf')
--------------------------------------------------------------------------

    Molecular point group: cs
  Charge       = 0
  Multiplicity = 1
  Basis Set: 6-31G
    Blend: 6-31G
  Basis Set: (6-31G AUX)
    Blend: CC-PVDZ-JKFIT

    Orbital Energies (a.u.)
    -----------------------

    Doubly Occupied:

       1Ap   -20.518326     2Ap    -1.229030     3Ap    -0.640558
       1App   -0.443991     4Ap    -0.441788

  @DF-RHF Final Energy:   -75.86784453999263

   => Energetics <=

    Nuclear Repulsion Energy =              7.7234573898860983
    One-Electron Energy =                -120.6352173646060351
    Two-Electron Energy =                  37.0439154347273245
    Total Energy =                        -75.8678445399926176
    Molecular point group: cs

    Geometry (in Angstrom), charge = 0, multiplicity = 1:

       Center              X                  Y                   Z               Mass
    ------------   -----------------  -----------------  -----------------  -----------------
           O          0.024880141647    -0.012400190733     0.000000000000    15.994914619560
           H          0.024880141647    -1.012400190733     0.000000000000     1.007825032070
           H         -0.419746044653     1.209200216267     0.000000000000     1.007825032070

  Basis Set: 6-31G
    Blend: 6-31G
  Basis Set: (6-31G AUX)
    Blend: CC-PVDZ-JKFIT

  -Total Gradient:
     Atom            X                  Y                   Z
    ------   -----------------  -----------------  -----------------
       1       -0.003294496823    -0.098853040124     0.000000000000
       2        0.032375782402    -0.053862868110     0.000000000000
       3       -0.029081285579     0.152715908234     0.000000000000

*** Psi4 exiting successfully. Buy a developer a beer!
