                               Psi4 1.2a1.dev429

  ==> Input File <==

--------------------------------------------------------------------------
# density-fitted hartree fock energies and gradients with 6-31g
molecule h2o {
0 1
O 0.0000000000 0.0000000000 0.0000000000
H 0.0000000000 0.0000000000 0.9000000000
H 0.0000000000 0.9848077530 -0.1736481777
}

set basis 6-31g

gradient('mp2')
--------------------------------------------------------------------------

    Molecular point group: cs
  Charge       = 0
  Multiplicity = 1
  Basis Set: 6-31G
    Blend: 6-31G
  Basis Set: (6-31G AUX)
    Blend: CC-PVDZ-JKFIT

    Orbital Energies (a.u.)
    -----------------------

    Doubly Occupied:

       1Ap   -20.561981     2Ap    -1.368359     3Ap    -0.706566
       4Ap    -0.569789     1App   -0.504172

  @DF-RHF Final Energy:   -75.97617008099309

   => Energetics <=

    Nuclear Repulsion Energy =              9.3004356652983589
    One-Electron Energy =                -123.1314767174043396
    Two-Electron Energy =                  37.8548709711128879
    Total Energy =                        -75.9761700809930858
  Basis Set: (6-31G AUX)
    Blend: CC-PVDZ-RI
    Molecular point group: cs

    Geometry (in Angstrom), charge = 0, multiplicity = 1:

       Center              X                  Y                   Z               Mass
    ------------   -----------------  -----------------  -----------------  -----------------
           O          0.055107317437     0.040644786072     0.000000000000    15.994914619560
           H          0.055107317437    -0.859355213928     0.000000000000     1.007825032070
           H         -0.929700435563     0.214292963772     0.000000000000     1.007825032070

  Basis Set: 6-31G
    Blend: 6-31G
  Basis Set: (6-31G AUX)
    Blend: CC-PVDZ-JKFIT
  Basis Set: (6-31G AUX)
    Blend: CC-PVDZ-JKFIT
	 Reference Energy          =     -75.9761700809930858 [Eh]
	 Singles Energy            =      -0.0000000000000000 [Eh]
	 Same-Spin Energy          =      -0.0299326372459039 [Eh]
	 Opposite-Spin Energy      =      -0.0983993344168476 [Eh]
	 Correlation Energy        =      -0.1283319716627515 [Eh]
	 Total Energy              =     -76.1045020526558318 [Eh]

	 ================> DF-SCS-MP2 Energies <==================
	-----------------------------------------------------------
	 SCS Same-Spin Scale       =       0.3333333333333333 [-]
	 SCS Opposite-Spin Scale   =       1.2000000000000000 [-]
	 SCS Same-Spin Energy      =      -0.0099775457486346 [Eh]
	 SCS Opposite-Spin Energy  =      -0.1180792013002171 [Eh]
	 SCS Correlation Energy    =      -0.1280567470488517 [Eh]
	 SCS Total Energy          =     -76.1042268280419307 [Eh]
	-----------------------------------------------------------

  -Total Gradient:
     Atom            X                  Y                   Z
    ------   -----------------  -----------------  -----------------
       1        0.038783624691    -0.085555779173     0.000000000000
       2       -0.020209476989     0.100749772778     0.000000000000
       3       -0.018574147702    -0.015193993605    -0.000000000000

*** Psi4 exiting successfully. Buy a developer a beer!
