                               Psi4 1.2a1.dev429

  ==> Input File <==

--------------------------------------------------------------------------
# density-fitted hartree fock energies and gradients with 6-31g
molecule h2o {
0 1
O 0.0000000000 0.0000000000 0.0000000000
H 0.0000000000 0.0000000000 1.3000000000
H 0.0000000000 0.2431074487 -1.3787308542
}

set basis 6-31g

gradient('mp2')
--------------------------------------------------------------------------

    Molecular point group: cs
  Charge       = 0
  Multiplicity = 1
  Basis Set: 6-31G
    Blend: 6-31G
  Basis Set: (6-31G AUX)
    Blend: CC-PVDZ-JKFIT

    Orbital Energies (a.u.)
    -----------------------

    Doubly Occupied:

       1Ap   -20.516885     2Ap    -1.154455     3Ap    -0.538344
       1App   -0.418635     4Ap    -0.414354

  @DF-RHF Final Energy:   -75.76636111521846

   => Energetics <=

    Nuclear Repulsion Energy =              6.4770840750113363
    One-Electron Energy =                -118.4015415624753444
    Two-Electron Energy =                  36.1580963722455593
    Total Energy =                        -75.7663611152184444
  Basis Set: (6-31G AUX)
    Blend: CC-PVDZ-RI
    Molecular point group: cs

    Geometry (in Angstrom), charge = 0, multiplicity = 1:

       Center              X                  Y                   Z               Mass
    ------------   -----------------  -----------------  -----------------  -----------------
           O          0.013603669656    -0.004405576785     0.000000000000    15.994914619560
           H          0.013603669656    -1.304405576785     0.000000000000     1.007825032070
           H         -0.229503779044     1.374325277415     0.000000000000     1.007825032070

  Basis Set: 6-31G
    Blend: 6-31G
  Basis Set: (6-31G AUX)
    Blend: CC-PVDZ-JKFIT
  Basis Set: (6-31G AUX)
    Blend: CC-PVDZ-JKFIT
	 Reference Energy          =     -75.7663611152184586 [Eh]
	 Singles Energy            =      -0.0000000000000000 [Eh]
	 Same-Spin Energy          =      -0.0348684532245581 [Eh]
	 Opposite-Spin Energy      =      -0.1124912728201886 [Eh]
	 Correlation Energy        =      -0.1473597260447467 [Eh]
	 Total Energy              =     -75.9137208412631992 [Eh]

	 ================> DF-SCS-MP2 Energies <==================
	-----------------------------------------------------------
	 SCS Same-Spin Scale       =       0.3333333333333333 [-]
	 SCS Opposite-Spin Scale   =       1.2000000000000000 [-]
	 SCS Same-Spin Energy      =      -0.0116228177415194 [Eh]
	 SCS Opposite-Spin Energy  =      -0.1349895273842263 [Eh]
	 SCS Correlation Energy    =      -0.1466123451257457 [Eh]
	 SCS Total Energy          =     -75.9129734603442046 [Eh]
	-----------------------------------------------------------

  -Total Gradient:
     Atom            X                  Y                   Z
    ------   -----------------  -----------------  -----------------
       1       -0.039571742631    -0.004691097915    -0.000000000000
       2        0.031766373302    -0.120910900138     0.000000000000
       3        0.007805369329     0.125601998052     0.000000000000

*** Psi4 exiting successfully. Buy a developer a beer!
