                               Psi4 1.2a1.dev429

  ==> Input File <==

--------------------------------------------------------------------------
# density-fitted hartree fock energies and gradients with 6-31g
molecule h2o {
0 1
O 0.0000000000 0.0000000000 0.0000000000
H 0.0000000000 0.0000000000 1.0000000000
H 0.0000000000 0.9396926208 -0.3420201433
}

set basis 6-31g

gradient('mp2')
--------------------------------------------------------------------------

    Molecular point group: c2v
  Charge       = 0
  Multiplicity = 1
  Basis Set: 6-31G
    Blend: 6-31G
  Basis Set: (6-31G AUX)
    Blend: CC-PVDZ-JKFIT

    Orbital Energies (a.u.)
    -----------------------

    Doubly Occupied:

       1A1   -20.564343     2A1    -1.328898     1B2    -0.695148
       3A1    -0.543804     1B1    -0.496238

  @DF-RHF Final Energy:   -75.98075261673161

   => Energetics <=

    Nuclear Repulsion Energy =              8.7898383820228538
    One-Electron Energy =                -122.2843188675496435
    Two-Electron Energy =                  37.5137278687951863
    Total Energy =                        -75.9807526167316070
  Basis Set: (6-31G AUX)
    Blend: CC-PVDZ-RI
    Molecular point group: c2v

    Geometry (in Angstrom), charge = 0, multiplicity = 1:

       Center              X                  Y                   Z               Mass
    ------------   -----------------  -----------------  -----------------  -----------------
           O          0.000000000000     0.000000000000    -0.064191734188    15.994914619560
           H          0.000000000000    -0.819152044283     0.509384702176     1.007825032070
           H         -0.000000000000     0.819152044283     0.509384702176     1.007825032070

  Basis Set: 6-31G
    Blend: 6-31G
  Basis Set: (6-31G AUX)
    Blend: CC-PVDZ-JKFIT
  Basis Set: (6-31G AUX)
    Blend: CC-PVDZ-JKFIT
	 Reference Energy          =     -75.9807526167316070 [Eh]
	 Singles Energy            =      -0.0000000000000000 [Eh]
	 Same-Spin Energy          =      -0.0310381578191342 [Eh]
	 Opposite-Spin Energy      =      -0.1012604426982285 [Eh]
	 Correlation Energy        =      -0.1322986005173626 [Eh]
	 Total Energy              =     -76.1130512172489659 [Eh]

	 ================> DF-SCS-MP2 Energies <==================
	-----------------------------------------------------------
	 SCS Same-Spin Scale       =       0.3333333333333333 [-]
	 SCS Opposite-Spin Scale   =       1.2000000000000000 [-]
	 SCS Same-Spin Energy      =      -0.0103460526063781 [Eh]
	 SCS Opposite-Spin Energy  =      -0.1215125312378741 [Eh]
	 SCS Correlation Energy    =      -0.1318585838442522 [Eh]
	 SCS Total Energy          =     -76.1126112005758557 [Eh]
	-----------------------------------------------------------

  -Total Gradient:
     Atom            X                  Y                   Z
    ------   -----------------  -----------------  -----------------
       1       -0.000000000000     0.000000000001    -0.019794291656
       2        0.000000000000    -0.019929737025     0.009897145829
       3        0.000000000000     0.019929737024     0.009897145827

*** Psi4 exiting successfully. Buy a developer a beer!
