                               Psi4 1.2a1.dev429

  ==> Input File <==

--------------------------------------------------------------------------
# density-fitted hartree fock energies and gradients with 6-31g
molecule h2o {
0 1
O 0.0000000000 0.0000000000 0.0000000000
H 0.0000000000 0.0000000000 1.5000000000
H 0.0000000000 1.0336618829 -0.3762221577
}

set basis 6-31g

gradient('mp2')
--------------------------------------------------------------------------

    Molecular point group: cs
  Charge       = 0
  Multiplicity = 1
  Basis Set: 6-31G
    Blend: 6-31G
  Basis Set: (6-31G AUX)
    Blend: CC-PVDZ-JKFIT

    Orbital Energies (a.u.)
    -----------------------

    Doubly Occupied:

       1Ap   -20.610815     2Ap    -1.253117     3Ap    -0.590113
       1App   -0.493850     4Ap    -0.482618

  @DF-RHF Final Energy:   -75.85589353296859

   => Energetics <=

    Nuclear Repulsion Energy =              6.9178746193055005
    One-Electron Energy =                -118.6865094992499507
    Two-Electron Energy =                  35.9127413469758494
    Total Energy =                        -75.8558935329685937
  Basis Set: (6-31G AUX)
    Blend: CC-PVDZ-RI
    Molecular point group: cs

    Geometry (in Angstrom), charge = 0, multiplicity = 1:

       Center              X                  Y                   Z               Mass
    ------------   -----------------  -----------------  -----------------  -----------------
           O          0.057841069316     0.062883727404     0.000000000000    15.994914619560
           H          0.057841069316    -1.437116272596     0.000000000000     1.007825032070
           H         -0.975820813584     0.439105885104     0.000000000000     1.007825032070

  Basis Set: 6-31G
    Blend: 6-31G
  Basis Set: (6-31G AUX)
    Blend: CC-PVDZ-JKFIT
  Basis Set: (6-31G AUX)
    Blend: CC-PVDZ-JKFIT
	 Reference Energy          =     -75.8558935329685937 [Eh]
	 Singles Energy            =      -0.0000000000000000 [Eh]
	 Same-Spin Energy          =      -0.0359468963530209 [Eh]
	 Opposite-Spin Energy      =      -0.1246799504062559 [Eh]
	 Correlation Energy        =      -0.1606268467592768 [Eh]
	 Total Energy              =     -76.0165203797278650 [Eh]

	 ================> DF-SCS-MP2 Energies <==================
	-----------------------------------------------------------
	 SCS Same-Spin Scale       =       0.3333333333333333 [-]
	 SCS Opposite-Spin Scale   =       1.2000000000000000 [-]
	 SCS Same-Spin Energy      =      -0.0119822987843403 [Eh]
	 SCS Opposite-Spin Energy  =      -0.1496159404875071 [Eh]
	 SCS Correlation Energy    =      -0.1615982392718474 [Eh]
	 SCS Total Energy          =     -76.0174917722404473 [Eh]
	-----------------------------------------------------------

  -Total Gradient:
     Atom            X                  Y                   Z
    ------   -----------------  -----------------  -----------------
       1        0.041797903159     0.063320379539    -0.000000000000
       2        0.012737444849    -0.101653586267     0.000000000000
       3       -0.054535348009     0.038333206727     0.000000000000

*** Psi4 exiting successfully. Buy a developer a beer!
