                               Psi4 1.2a1.dev429

  ==> Input File <==

--------------------------------------------------------------------------
# density-fitted hartree fock energies and gradients with 6-31g
molecule h20 {
0 1
O 0.0000000000 0.0000000000 0.0000000000
H 0.0000000000 0.0000000000 0.8000000000
H 0.0000000000 0.2431074487 -1.3787308542
}

set basis 6-31g

gradient('hf')
--------------------------------------------------------------------------

    Molecular point group: cs
  Charge       = 0
  Multiplicity = 1
  Basis Set: 6-31G
    Blend: 6-31G
  Basis Set: (6-31G AUX)
    Blend: CC-PVDZ-JKFIT

    Orbital Energies (a.u.)
    -----------------------

    Doubly Occupied:

       1Ap   -20.488018     2Ap    -1.282059     3Ap    -0.664835
       1App   -0.438634     4Ap    -0.437105

  @DF-RHF Final Energy:   -75.79890610305148

   => Energetics <=

    Nuclear Repulsion Energy =              8.5570270455148520
    One-Electron Energy =                -122.0905636854193403
    Two-Electron Energy =                  37.7346305368530111
    Total Energy =                        -75.7989061030514790
    Molecular point group: cs

    Geometry (in Angstrom), charge = 0, multiplicity = 1:

       Center              X                  Y                   Z               Mass
    ------------   -----------------  -----------------  -----------------  -----------------
           O          0.013603669656    -0.032384295103     0.000000000000    15.994914619560
           H          0.013603669656    -0.832384295103     0.000000000000     1.007825032070
           H         -0.229503779044     1.346346559097     0.000000000000     1.007825032070

  Basis Set: 6-31G
    Blend: 6-31G
  Basis Set: (6-31G AUX)
    Blend: CC-PVDZ-JKFIT

  -Total Gradient:
     Atom            X                  Y                   Z
    ------   -----------------  -----------------  -----------------
       1       -0.008927880122    -0.453472969157     0.000000000000
       2        0.024059223065     0.288486550865     0.000000000000
       3       -0.015131342943     0.164986418292     0.000000000000

*** Psi4 exiting successfully. Buy a developer a beer!
