                               Psi4 1.2a1.dev429

  ==> Input File <==

--------------------------------------------------------------------------
# density-fitted hartree fock energies and gradients with 6-31g
molecule h20 {
0 1
O 0.0000000000 0.0000000000 0.0000000000
H 0.0000000000 0.0000000000 1.4000000000
H 0.0000000000 0.9396926208 -0.3420201433
}

set basis 6-31g

gradient('hf')
--------------------------------------------------------------------------

    Molecular point group: cs
  Charge       = 0
  Multiplicity = 1
  Basis Set: 6-31G
    Blend: 6-31G
  Basis Set: (6-31G AUX)
    Blend: CC-PVDZ-JKFIT

    Orbital Energies (a.u.)
    -----------------------

    Doubly Occupied:

       1Ap   -20.594789     2Ap    -1.280343     3Ap    -0.622545
       4Ap    -0.499774     1App   -0.493520

  @DF-RHF Final Energy:   -75.89416746688752

   => Energetics <=

    Nuclear Repulsion Energy =              7.5246422158503821
    One-Electron Energy =                -119.8556775562089172
    Two-Electron Energy =                  36.4368678734710159
    Total Energy =                        -75.8941674668875237
    Molecular point group: cs

    Geometry (in Angstrom), charge = 0, multiplicity = 1:

       Center              X                  Y                   Z               Mass
    ------------   -----------------  -----------------  -----------------  -----------------
           O          0.052582790286     0.059201840794     0.000000000000    15.994914619560
           H          0.052582790286    -1.340798159206     0.000000000000     1.007825032070
           H         -0.887109830514     0.401221984094     0.000000000000     1.007825032070

  Basis Set: 6-31G
    Blend: 6-31G
  Basis Set: (6-31G AUX)
    Blend: CC-PVDZ-JKFIT

  -Total Gradient:
     Atom            X                  Y                   Z
    ------   -----------------  -----------------  -----------------
       1        0.024195820882     0.109019843804     0.000000000000
       2        0.008949463634    -0.134417088094     0.000000000000
       3       -0.033145284517     0.025397244290     0.000000000000

*** Psi4 exiting successfully. Buy a developer a beer!
