                               Psi4 1.2a1.dev429

  ==> Input File <==

--------------------------------------------------------------------------
# density-fitted hartree fock energies and gradients with 6-31g
molecule h2o {
0 1
O 0.0000000000 0.0000000000 0.0000000000
H 0.0000000000 0.0000000000 0.8000000000
H 0.0000000000 0.8863269777 -0.1562833599
}

set basis 6-31g

gradient('mp2')
--------------------------------------------------------------------------

    Molecular point group: cs
  Charge       = 0
  Multiplicity = 1
  Basis Set: 6-31G
    Blend: 6-31G
  Basis Set: (6-31G AUX)
    Blend: CC-PVDZ-JKFIT

    Orbital Energies (a.u.)
    -----------------------

    Doubly Occupied:

       1Ap   -20.541796     2Ap    -1.432658     3Ap    -0.764639
       4Ap    -0.584869     1App   -0.511000

  @DF-RHF Final Energy:   -75.94106961148579

   => Energetics <=

    Nuclear Repulsion Energy =             10.4014235161709649
    One-Electron Energy =                -125.0150637768595061
    Two-Electron Energy =                  38.6725706492027470
    Total Energy =                        -75.9410696114858013
  Basis Set: (6-31G AUX)
    Blend: CC-PVDZ-RI
    Molecular point group: cs

    Geometry (in Angstrom), charge = 0, multiplicity = 1:

       Center              X                  Y                   Z               Mass
    ------------   -----------------  -----------------  -----------------  -----------------
           O          0.049596585694     0.036020733100     0.000000000000    15.994914619560
           H          0.049596585694    -0.763979266900     0.000000000000     1.007825032070
           H         -0.836730392006     0.192304093000     0.000000000000     1.007825032070

  Basis Set: 6-31G
    Blend: 6-31G
  Basis Set: (6-31G AUX)
    Blend: CC-PVDZ-JKFIT
  Basis Set: (6-31G AUX)
    Blend: CC-PVDZ-JKFIT
	 Reference Energy          =     -75.9410696114857870 [Eh]
	 Singles Energy            =      -0.0000000000000000 [Eh]
	 Same-Spin Energy          =      -0.0277112789756427 [Eh]
	 Opposite-Spin Energy      =      -0.0913047889267332 [Eh]
	 Correlation Energy        =      -0.1190160679023759 [Eh]
	 Total Energy              =     -76.0600856793881661 [Eh]

	 ================> DF-SCS-MP2 Energies <==================
	-----------------------------------------------------------
	 SCS Same-Spin Scale       =       0.3333333333333333 [-]
	 SCS Opposite-Spin Scale   =       1.2000000000000000 [-]
	 SCS Same-Spin Energy      =      -0.0092370929918809 [Eh]
	 SCS Opposite-Spin Energy  =      -0.1095657467120798 [Eh]
	 SCS Correlation Energy    =      -0.1188028397039607 [Eh]
	 SCS Total Energy          =     -76.0598724511897473 [Eh]
	-----------------------------------------------------------

  -Total Gradient:
     Atom            X                  Y                   Z
    ------   -----------------  -----------------  -----------------
       1       -0.054707755556    -0.277054006421     0.000000000000
       2       -0.035889770112     0.325422955403     0.000000000000
       3        0.090597525667    -0.048368948982    -0.000000000000

*** Psi4 exiting successfully. Buy a developer a beer!
