                               Psi4 1.2.1 release

  ==> Input File <==

--------------------------------------------------------------------------
# density fitted hartree fock
molecule h2o {
0 1
H 0.0000000000 0.0000000000 1.2000000000
H 0.0000000000 0.8500000000 0.0000000000
O 0.0000000000 0.0000000000 0.0000000000
}

set basis 6-31g
energy('hf')

--------------------------------------------------------------------------

    Molecular point group: cs

    Geometry (in Angstrom), charge = 0, multiplicity = 1:

       Center              X                  Y                   Z               Mass
    ------------   -----------------  -----------------  -----------------  -----------------
         H            0.047563821141    -1.132851076037     0.000000000000     1.007825032070
         H           -0.802436178859     0.067148923963     0.000000000000     1.007825032070
         O            0.047563821141     0.067148923963     0.000000000000    15.994914619560

  Charge       = 0
  Multiplicity = 1
  Basis Set: 6-31G
    Blend: 6-31G
  Basis Set: (6-31G AUX)
    Blend: CC-PVDZ-JKFIT

    Orbital Energies [Eh]
    ---------------------

    Doubly Occupied:

       1Ap   -20.581627     2Ap    -1.366368     3Ap    -0.668386
       4Ap    -0.562151     1App   -0.508590

  @DF-RHF Final Energy:   -75.92365011291987

   => Energetics <=

    Nuclear Repulsion Energy =              8.8681907297734384
    One-Electron Energy =                -122.2094290538560415
    Two-Electron Energy =                  37.4175882111627374
    Total Energy =                        -75.9236501129198729

  Dipole Moment: [D]
     X:    -2.0318      Y:    -1.9768      Z:     0.0000     Total:     2.8348

*** Psi4 exiting successfully. Buy a developer a beer!
