                               Psi4 1.2a1.dev429

  ==> Input File <==

--------------------------------------------------------------------------
# density-fitted hartree fock energies and gradients with 6-31g
molecule h2o {
0 1
O 0.0000000000 0.0000000000 0.0000000000
H 0.0000000000 0.0000000000 1.4000000000
H 0.0000000000 1.2802500789 -0.2257426310
}

set basis 6-31g

gradient('mp2')
--------------------------------------------------------------------------

    Molecular point group: cs
  Charge       = 0
  Multiplicity = 1
  Basis Set: 6-31G
    Blend: 6-31G
  Basis Set: (6-31G AUX)
    Blend: CC-PVDZ-JKFIT

    Orbital Energies (a.u.)
    -----------------------

    Doubly Occupied:

       1Ap   -20.632180     2Ap    -1.237499     3Ap    -0.546859
       4Ap    -0.504475     1App   -0.500290

  @DF-RHF Final Energy:   -75.83926533605022

   => Energetics <=

    Nuclear Repulsion Energy =              6.5360702391298053
    One-Electron Energy =                -117.9080656328228542
    Two-Electron Energy =                  35.5327300576428229
    Total Energy =                        -75.8392653360502322
  Basis Set: (6-31G AUX)
    Blend: CC-PVDZ-RI
    Molecular point group: cs

    Geometry (in Angstrom), charge = 0, multiplicity = 1:

       Center              X                  Y                   Z               Mass
    ------------   -----------------  -----------------  -----------------  -----------------
           O          0.071639512669     0.065708432320     0.000000000000    15.994914619560
           H          0.071639512669    -1.334291567680     0.000000000000     1.007825032070
           H         -1.208610566231     0.291451063320     0.000000000000     1.007825032070

  Basis Set: 6-31G
    Blend: 6-31G
  Basis Set: (6-31G AUX)
    Blend: CC-PVDZ-JKFIT
  Basis Set: (6-31G AUX)
    Blend: CC-PVDZ-JKFIT
	 Reference Energy          =     -75.8392653360502180 [Eh]
	 Singles Energy            =      -0.0000000000000000 [Eh]
	 Same-Spin Energy          =      -0.0378948984697074 [Eh]
	 Opposite-Spin Energy      =      -0.1305910971662646 [Eh]
	 Correlation Energy        =      -0.1684859956359720 [Eh]
	 Total Energy              =     -76.0077513316861939 [Eh]

	 ================> DF-SCS-MP2 Energies <==================
	-----------------------------------------------------------
	 SCS Same-Spin Scale       =       0.3333333333333333 [-]
	 SCS Opposite-Spin Scale   =       1.2000000000000000 [-]
	 SCS Same-Spin Energy      =      -0.0126316328232358 [Eh]
	 SCS Opposite-Spin Energy  =      -0.1567093165995176 [Eh]
	 SCS Correlation Energy    =      -0.1693409494227534 [Eh]
	 SCS Total Energy          =     -76.0086062854729647 [Eh]
	-----------------------------------------------------------

  -Total Gradient:
     Atom            X                  Y                   Z
    ------   -----------------  -----------------  -----------------
       1        0.087886114350     0.075701230496    -0.000000000000
       2        0.006757893419    -0.099779535680     0.000000000000
       3       -0.094644007770     0.024078305184     0.000000000000

*** Psi4 exiting successfully. Buy a developer a beer!
