                               Psi4 1.2a1.dev429

  ==> Input File <==

--------------------------------------------------------------------------
# density-fitted hartree fock energies and gradients with 6-31g
molecule h2o {
0 1
O 0.0000000000 0.0000000000 0.0000000000
H 0.0000000000 0.0000000000 1.4000000000
H 0.0000000000 0.7713451316 -0.9192533317
}

set basis 6-31g

gradient('mp2')
--------------------------------------------------------------------------

    Molecular point group: cs
  Charge       = 0
  Multiplicity = 1
  Basis Set: 6-31G
    Blend: 6-31G
  Basis Set: (6-31G AUX)
    Blend: CC-PVDZ-JKFIT

    Orbital Energies (a.u.)
    -----------------------

    Doubly Occupied:

       1Ap   -20.574205     2Ap    -1.210837     3Ap    -0.576975
       1App   -0.464354     4Ap    -0.452165

  @DF-RHF Final Energy:   -75.83018217273150

   => Energetics <=

    Nuclear Repulsion Energy =              6.7682247586752586
    One-Electron Energy =                -118.6397401064027690
    Two-Electron Energy =                  36.0413331749960122
    Total Energy =                        -75.8301821727314973
  Basis Set: (6-31G AUX)
    Blend: CC-PVDZ-RI
    Molecular point group: cs

    Geometry (in Angstrom), charge = 0, multiplicity = 1:

       Center              X                  Y                   Z               Mass
    ------------   -----------------  -----------------  -----------------  -----------------
           O          0.043162496326     0.026901351229     0.000000000000    15.994914619560
           H          0.043162496326    -1.373098648771     0.000000000000     1.007825032070
           H         -0.728182635274     0.946154682929     0.000000000000     1.007825032070

  Basis Set: 6-31G
    Blend: 6-31G
  Basis Set: (6-31G AUX)
    Blend: CC-PVDZ-JKFIT
  Basis Set: (6-31G AUX)
    Blend: CC-PVDZ-JKFIT
	 Reference Energy          =     -75.8301821727314973 [Eh]
	 Singles Energy            =      -0.0000000000000000 [Eh]
	 Same-Spin Energy          =      -0.0357072740824283 [Eh]
	 Opposite-Spin Energy      =      -0.1201571410983281 [Eh]
	 Correlation Energy        =      -0.1558644151807564 [Eh]
	 Total Energy              =     -75.9860465879122557 [Eh]

	 ================> DF-SCS-MP2 Energies <==================
	-----------------------------------------------------------
	 SCS Same-Spin Scale       =       0.3333333333333333 [-]
	 SCS Opposite-Spin Scale   =       1.2000000000000000 [-]
	 SCS Same-Spin Energy      =      -0.0119024246941428 [Eh]
	 SCS Opposite-Spin Energy  =      -0.1441885693179938 [Eh]
	 SCS Correlation Energy    =      -0.1560909940121365 [Eh]
	 SCS Total Energy          =     -75.9862731667436293 [Eh]
	-----------------------------------------------------------

  -Total Gradient:
     Atom            X                  Y                   Z
    ------   -----------------  -----------------  -----------------
       1       -0.002690229534     0.006274649683     0.000000000000
       2        0.034671828325    -0.107318591329     0.000000000000
       3       -0.031981598791     0.101043941645    -0.000000000000

*** Psi4 exiting successfully. Buy a developer a beer!
