                               Psi4 1.2a1.dev429

  ==> Input File <==

--------------------------------------------------------------------------
# density-fitted hartree fock energies and gradients with 6-31g
molecule h2o {
0 1
O 0.0000000000 0.0000000000 0.0000000000
H 0.0000000000 0.0000000000 0.9000000000
H 0.0000000000 0.8999026536 -1.0724622204
}

set basis 6-31g

gradient('mp2')
--------------------------------------------------------------------------

    Molecular point group: cs
  Charge       = 0
  Multiplicity = 1
  Basis Set: 6-31G
    Blend: 6-31G
  Basis Set: (6-31G AUX)
    Blend: CC-PVDZ-JKFIT

    Orbital Energies (a.u.)
    -----------------------

    Doubly Occupied:

       1Ap   -20.544432     2Ap    -1.279695     3Ap    -0.651532
       1App   -0.467741     4Ap    -0.462203

  @DF-RHF Final Energy:   -75.86462289728830

   => Energetics <=

    Nuclear Repulsion Energy =              7.9717472007463552
    One-Electron Energy =                -120.8615354153338330
    Two-Electron Energy =                  37.0251653172991837
    Total Energy =                        -75.8646228972882994
  Basis Set: (6-31G AUX)
    Blend: CC-PVDZ-RI
    Molecular point group: cs

    Geometry (in Angstrom), charge = 0, multiplicity = 1:

       Center              X                  Y                   Z               Mass
    ------------   -----------------  -----------------  -----------------  -----------------
           O          0.050356245718    -0.009650543770     0.000000000000    15.994914619560
           H          0.050356245718    -0.909650543770     0.000000000000     1.007825032070
           H         -0.849546407882     1.062811676630     0.000000000000     1.007825032070

  Basis Set: 6-31G
    Blend: 6-31G
  Basis Set: (6-31G AUX)
    Blend: CC-PVDZ-JKFIT
  Basis Set: (6-31G AUX)
    Blend: CC-PVDZ-JKFIT
	 Reference Energy          =     -75.8646228972882994 [Eh]
	 Singles Energy            =      -0.0000000000000000 [Eh]
	 Same-Spin Energy          =      -0.0330184010242164 [Eh]
	 Opposite-Spin Energy      =      -0.1093724788426227 [Eh]
	 Correlation Energy        =      -0.1423908798668390 [Eh]
	 Total Energy              =     -76.0070137771551373 [Eh]

	 ================> DF-SCS-MP2 Energies <==================
	-----------------------------------------------------------
	 SCS Same-Spin Scale       =       0.3333333333333333 [-]
	 SCS Opposite-Spin Scale   =       1.2000000000000000 [-]
	 SCS Same-Spin Energy      =      -0.0110061336747388 [Eh]
	 SCS Opposite-Spin Energy  =      -0.1312469746111472 [Eh]
	 SCS Correlation Energy    =      -0.1422531082858860 [Eh]
	 SCS Total Energy          =     -76.0068760055741848 [Eh]
	-----------------------------------------------------------

  -Total Gradient:
     Atom            X                  Y                   Z
    ------   -----------------  -----------------  -----------------
       1        0.007031209186    -0.204893993701    -0.000000000000
       2        0.047196108032     0.093067180000     0.000000000000
       3       -0.054227317218     0.111826813702     0.000000000000

*** Psi4 exiting successfully. Buy a developer a beer!
