                               Psi4 1.2a1.dev429

  ==> Input File <==

--------------------------------------------------------------------------
# density-fitted hartree fock energies and gradients with 6-31g
molecule h2o {
0 1
O 0.0000000000 0.0000000000 0.0000000000
H 0.0000000000 0.0000000000 1.1000000000
H 0.0000000000 1.3155696691 -0.4788282007
}

set basis 6-31g

gradient('mp2')
--------------------------------------------------------------------------

    Molecular point group: cs
  Charge       = 0
  Multiplicity = 1
  Basis Set: 6-31G
    Blend: 6-31G
  Basis Set: (6-31G AUX)
    Blend: CC-PVDZ-JKFIT

    Orbital Energies (a.u.)
    -----------------------

    Doubly Occupied:

       1Ap   -20.605394     2Ap    -1.257307     3Ap    -0.596793
       4Ap    -0.497279     1App   -0.492882

  @DF-RHF Final Energy:   -75.88072775364253

   => Energetics <=

    Nuclear Repulsion Energy =              7.1299263334847742
    One-Electron Energy =                -119.1219989893834992
    Two-Electron Energy =                  36.1113449022561994
    Total Energy =                        -75.8807277536425318
  Basis Set: (6-31G AUX)
    Blend: CC-PVDZ-RI
    Molecular point group: cs

    Geometry (in Angstrom), charge = 0, multiplicity = 1:

       Center              X                  Y                   Z               Mass
    ------------   -----------------  -----------------  -----------------  -----------------
           O          0.073615906399     0.034759181600     0.000000000000    15.994914619560
           H          0.073615906399    -1.065240818400     0.000000000000     1.007825032070
           H         -1.241953762701     0.513587382300     0.000000000000     1.007825032070

  Basis Set: 6-31G
    Blend: 6-31G
  Basis Set: (6-31G AUX)
    Blend: CC-PVDZ-JKFIT
  Basis Set: (6-31G AUX)
    Blend: CC-PVDZ-JKFIT
	 Reference Energy          =     -75.8807277536425318 [Eh]
	 Singles Energy            =      -0.0000000000000000 [Eh]
	 Same-Spin Energy          =      -0.0352822972782397 [Eh]
	 Opposite-Spin Energy      =      -0.1202696073905946 [Eh]
	 Correlation Energy        =      -0.1555519046688343 [Eh]
	 Total Energy              =     -76.0362796583113720 [Eh]

	 ================> DF-SCS-MP2 Energies <==================
	-----------------------------------------------------------
	 SCS Same-Spin Scale       =       0.3333333333333333 [-]
	 SCS Opposite-Spin Scale   =       1.2000000000000000 [-]
	 SCS Same-Spin Energy      =      -0.0117607657594132 [Eh]
	 SCS Opposite-Spin Energy  =      -0.1443235288687136 [Eh]
	 SCS Correlation Energy    =      -0.1560842946281268 [Eh]
	 SCS Total Energy          =     -76.0368120482706615 [Eh]
	-----------------------------------------------------------

  -Total Gradient:
     Atom            X                  Y                   Z
    ------   -----------------  -----------------  -----------------
       1        0.079708123125     0.018172018158     0.000000000000
       2        0.016389776874    -0.066852935151    -0.000000000000
       3       -0.096097899999     0.048680916992     0.000000000000

*** Psi4 exiting successfully. Buy a developer a beer!
