                               Psi4 1.2.1 release

  ==> Input File <==

--------------------------------------------------------------------------
# density fitted hartree fock
molecule h2o {
0 1
H 0.0000000000 0.0000000000 1.2000000000
H 0.0000000000 1.0250000000 0.0000000000
O 0.0000000000 0.0000000000 0.0000000000
}

set basis 6-31g
energy('hf')

--------------------------------------------------------------------------

    Molecular point group: cs

    Geometry (in Angstrom), charge = 0, multiplicity = 1:

       Center              X                  Y                   Z               Mass
    ------------   -----------------  -----------------  -----------------  -----------------
         H            0.057356372552    -1.132851076037     0.000000000000     1.007825032070
         H           -0.967643627448     0.067148923963     0.000000000000     1.007825032070
         O            0.057356372552     0.067148923963     0.000000000000    15.994914619560

  Charge       = 0
  Multiplicity = 1
  Basis Set: 6-31G
    Blend: 6-31G
  Basis Set: (6-31G AUX)
    Blend: CC-PVDZ-JKFIT

    Orbital Energies [Eh]
    ---------------------

    Doubly Occupied:

       1Ap   -20.600912     2Ap    -1.307707     3Ap    -0.621330
       4Ap    -0.556913     1App   -0.504955

  @DF-RHF Final Energy:   -75.93675811628785

   => Energetics <=

    Nuclear Repulsion Energy =              7.9933219869320959
    One-Electron Energy =                -120.6765188089968888
    Two-Electron Energy =                  36.7464387057769315
    Total Energy =                        -75.9367581162878480

  Dipole Moment: [D]
     X:    -2.0633      Y:    -1.9866      Z:     0.0000     Total:     2.8642

*** Psi4 exiting successfully. Buy a developer a beer!
