                               Psi4 1.2a1.dev429

  ==> Input File <==

--------------------------------------------------------------------------
# density-fitted hartree fock energies and gradients with 6-31g
molecule h2o {
0 1
O 0.0000000000 0.0000000000 0.0000000000
H 0.0000000000 0.0000000000 1.5000000000
H 0.0000000000 0.3078181290 -0.8457233587
}

set basis 6-31g

gradient('mp2')
--------------------------------------------------------------------------

    Molecular point group: cs
  Charge       = 0
  Multiplicity = 1
  Basis Set: 6-31G
    Blend: 6-31G
  Basis Set: (6-31G AUX)
    Blend: CC-PVDZ-JKFIT

    Orbital Energies (a.u.)
    -----------------------

    Doubly Occupied:

       1Ap   -20.510425     2Ap    -1.246542     3Ap    -0.623028
       1App   -0.439765     4Ap    -0.429107

  @DF-RHF Final Energy:   -75.81051821784007

   => Energetics <=

    Nuclear Repulsion Energy =              7.7497505636263497
    One-Electron Energy =                -120.6228038746032780
    Two-Electron Energy =                  37.0625350931368658
    Total Energy =                        -75.8105182178400696
  Basis Set: (6-31G AUX)
    Blend: CC-PVDZ-RI
    Molecular point group: cs

    Geometry (in Angstrom), charge = 0, multiplicity = 1:

       Center              X                  Y                   Z               Mass
    ------------   -----------------  -----------------  -----------------  -----------------
           O          0.017224713449     0.036611643698     0.000000000000    15.994914619560
           H          0.017224713449    -1.463388356302     0.000000000000     1.007825032070
           H         -0.290593415551     0.882335002398     0.000000000000     1.007825032070

  Basis Set: 6-31G
    Blend: 6-31G
  Basis Set: (6-31G AUX)
    Blend: CC-PVDZ-JKFIT
  Basis Set: (6-31G AUX)
    Blend: CC-PVDZ-JKFIT
	 Reference Energy          =     -75.8105182178400696 [Eh]
	 Singles Energy            =      -0.0000000000000000 [Eh]
	 Same-Spin Energy          =      -0.0336338830022952 [Eh]
	 Opposite-Spin Energy      =      -0.1097744700572792 [Eh]
	 Correlation Energy        =      -0.1434083530595744 [Eh]
	 Total Energy              =     -75.9539265708996396 [Eh]

	 ================> DF-SCS-MP2 Energies <==================
	-----------------------------------------------------------
	 SCS Same-Spin Scale       =       0.3333333333333333 [-]
	 SCS Opposite-Spin Scale   =       1.2000000000000000 [-]
	 SCS Same-Spin Energy      =      -0.0112112943340984 [Eh]
	 SCS Opposite-Spin Energy  =      -0.1317293640687351 [Eh]
	 SCS Correlation Energy    =      -0.1429406584028335 [Eh]
	 SCS Total Energy          =     -75.9534588762429053 [Eh]
	-----------------------------------------------------------

  -Total Gradient:
     Atom            X                  Y                   Z
    ------   -----------------  -----------------  -----------------
       1       -0.110425590497     0.185592138529     0.000000000000
       2        0.031233699204    -0.120216254647    -0.000000000000
       3        0.079191891293    -0.065375883882    -0.000000000000

*** Psi4 exiting successfully. Buy a developer a beer!
