                               Psi4 1.3.1 release

  ==> Input File <==

--------------------------------------------------------------------------
# density fitted MP2
molecule h2o {
0 1
H 0.0000000000 0.0000000000 1.1125000000
H 0.0000000000 1.1125000000 0.0000000000
O 0.0000000000 0.0000000000 0.0000000000
}

set basis 6-31g
energy('mp2')

--------------------------------------------------------------------------

    Molecular point group: c2v

    Geometry (in Angstrom), charge = 0, multiplicity = 1:

       Center              X                  Y                   Z               Mass
    ------------   -----------------  -----------------  -----------------  -----------------
         H            0.000000000000    -0.786656294070     0.698617754598     1.007825032230
         H           -0.000000000000     0.786656294070     0.698617754598     1.007825032230
         O            0.000000000000     0.000000000000    -0.088038539472    15.994914619570

  Charge       = 0
  Multiplicity = 1
  Basis Set: 6-31G
    Blend: 6-31G
  Basis Set: (6-31G AUX)
    Blend: CC-PVDZ-JKFIT

    Orbital Energies [Eh]
    ---------------------

    Doubly Occupied:

       1A1   -20.601872     2A1    -1.302249     1B2    -0.613296
       3A1    -0.563817     1B1    -0.504399

  @DF-RHF Final Energy:   -75.94170037872458

   => Energetics <=

    Nuclear Repulsion Energy =              7.9469844178284390
    One-Electron Energy =                -120.6061033580193396
    Two-Electron Energy =                  36.7174185614663244
    Total Energy =                        -75.9417003787245619

  Dipole Moment: [D]
     X:     0.0000      Y:     0.0000      Z:     2.8746     Total:     2.8746

  Basis Set: (6-31G AUX)
    Blend: CC-PVDZ-RI
	 Reference Energy          =     -75.9417003787245761 [Eh]
	 Singles Energy            =      -0.0000000000000000 [Eh]
	 Same-Spin Energy          =      -0.0336631829079978 [Eh]
	 Opposite-Spin Energy      =      -0.1118246483054911 [Eh]
	 Correlation Energy        =      -0.1454878312134890 [Eh]
	 Total Energy              =     -76.0871882099380628 [Eh]

	 ================> DF-SCS-MP2 Energies <==================
	-----------------------------------------------------------
	 SCS Same-Spin Scale       =       0.3333333333333333 [-]
	 SCS Opposite-Spin Scale   =       1.2000000000000000 [-]
	 SCS Same-Spin Energy      =      -0.0112210609693326 [Eh]
	 SCS Opposite-Spin Energy  =      -0.1341895779665893 [Eh]
	 SCS Correlation Energy    =      -0.1454106389359220 [Eh]
	 SCS Total Energy          =     -76.0871110176605043 [Eh]
	-----------------------------------------------------------

*** Psi4 exiting successfully. Buy a developer a beer!
