                               Psi4 1.2a1.dev429

  ==> Input File <==

--------------------------------------------------------------------------
# density-fitted hartree fock energies and gradients with 6-31g
molecule h2o {
0 1
O 0.0000000000 0.0000000000 0.0000000000
H 0.0000000000 0.0000000000 0.8000000000
H 0.0000000000 1.0832885283 -0.1910129954
}

set basis 6-31g

gradient('mp2')
--------------------------------------------------------------------------

    Molecular point group: cs
  Charge       = 0
  Multiplicity = 1
  Basis Set: 6-31G
    Blend: 6-31G
  Basis Set: (6-31G AUX)
    Blend: CC-PVDZ-JKFIT

    Orbital Energies (a.u.)
    -----------------------

    Doubly Occupied:

       1Ap   -20.560768     2Ap    -1.390337     3Ap    -0.711255
       4Ap    -0.564273     1App   -0.506075

  @DF-RHF Final Energy:   -75.92960465214519

   => Energetics <=

    Nuclear Repulsion Energy =              9.5007586377680546
    One-Electron Energy =                -123.3953088635088164
    Two-Electron Energy =                  37.9649455735955712
    Total Energy =                        -75.9296046521451871
  Basis Set: (6-31G AUX)
    Blend: CC-PVDZ-RI
    Molecular point group: cs

    Geometry (in Angstrom), charge = 0, multiplicity = 1:

       Center              X                  Y                   Z               Mass
    ------------   -----------------  -----------------  -----------------  -----------------
           O          0.060618049181     0.034077351722     0.000000000000    15.994914619560
           H          0.060618049181    -0.765922648278     0.000000000000     1.007825032070
           H         -1.022670479119     0.225090347122     0.000000000000     1.007825032070

  Basis Set: 6-31G
    Blend: 6-31G
  Basis Set: (6-31G AUX)
    Blend: CC-PVDZ-JKFIT
  Basis Set: (6-31G AUX)
    Blend: CC-PVDZ-JKFIT
	 Reference Energy          =     -75.9296046521451871 [Eh]
	 Singles Energy            =      -0.0000000000000000 [Eh]
	 Same-Spin Energy          =      -0.0295442123340753 [Eh]
	 Opposite-Spin Energy      =      -0.0980048266154186 [Eh]
	 Correlation Energy        =      -0.1275490389494939 [Eh]
	 Total Energy              =     -76.0571536910946833 [Eh]

	 ================> DF-SCS-MP2 Energies <==================
	-----------------------------------------------------------
	 SCS Same-Spin Scale       =       0.3333333333333333 [-]
	 SCS Opposite-Spin Scale   =       1.2000000000000000 [-]
	 SCS Same-Spin Energy      =      -0.0098480707780251 [Eh]
	 SCS Opposite-Spin Energy  =      -0.1176057919385023 [Eh]
	 SCS Correlation Energy    =      -0.1274538627165274 [Eh]
	 SCS Total Energy          =     -76.0570585148617084 [Eh]
	-----------------------------------------------------------

  -Total Gradient:
     Atom            X                  Y                   Z
    ------   -----------------  -----------------  -----------------
       1        0.096147978267    -0.327236877093     0.000000000000
       2       -0.020586490485     0.329116308984    -0.000000000000
       3       -0.075561487783    -0.001879431892    -0.000000000000

*** Psi4 exiting successfully. Buy a developer a beer!
