                               Psi4 1.2a1.dev429

  ==> Input File <==

--------------------------------------------------------------------------
# density-fitted hartree fock energies and gradients with 6-31g
molecule h20 {
0 1
O 0.0000000000 0.0000000000 0.0000000000
O 0.0000000000 0.0000000000 1.4434343434
}

set basis 6-31g

gradient('hf')
--------------------------------------------------------------------------

    Molecular point group: d2h
  Charge       = 0
  Multiplicity = 1
  Basis Set: 6-31G
    Blend: 6-31G
  Basis Set: (6-31G AUX)
    Blend: CC-PVDZ-JKFIT

    Orbital Energies (a.u.)
    -----------------------

    Doubly Occupied:

       1Ag   -20.791272     1B1u  -20.790845     2Ag    -1.514959
       2B1u   -1.179928     1B2u   -0.716922     3Ag    -0.660325
       1B3u   -0.569430     1B3g   -0.551623

  @DF-RHF Final Energy:  -149.40007698377775

   => Energetics <=

    Nuclear Repulsion Energy =             23.4630286473478975
    One-Electron Energy =                -252.1756012094153618
    Two-Electron Energy =                  79.3124955782897132
    Total Energy =                       -149.4000769837777511
    Molecular point group: d2h

    Geometry (in Angstrom), charge = 0, multiplicity = 1:

       Center              X                  Y                   Z               Mass
    ------------   -----------------  -----------------  -----------------  -----------------
           O          0.000000000000     0.000000000000    -0.721717171700    15.994914619560
           O          0.000000000000     0.000000000000     0.721717171700    15.994914619560

  Basis Set: 6-31G
    Blend: 6-31G
  Basis Set: (6-31G AUX)
    Blend: CC-PVDZ-JKFIT

  -Total Gradient:
     Atom            X                  Y                   Z
    ------   -----------------  -----------------  -----------------
       1        0.000000000000     0.000000000000    -0.200532734200
       2       -0.000000000000     0.000000000000     0.200532734200

*** Psi4 exiting successfully. Buy a developer a beer!
