                               Psi4 1.2a1.dev429

  ==> Input File <==

--------------------------------------------------------------------------
# density-fitted hartree fock energies and gradients with 6-31g
molecule h2o {
0 1
O 0.0000000000 0.0000000000 0.0000000000
H 0.0000000000 0.0000000000 1.2000000000
H 0.0000000000 0.7000000000 -1.2124355653
}

set basis 6-31g

gradient('mp2')
--------------------------------------------------------------------------

    Molecular point group: cs
  Charge       = 0
  Multiplicity = 1
  Basis Set: 6-31G
    Blend: 6-31G
  Basis Set: (6-31G AUX)
    Blend: CC-PVDZ-JKFIT

    Orbital Energies (a.u.)
    -----------------------

    Doubly Occupied:

       1Ap   -20.554994     2Ap    -1.196993     3Ap    -0.573614
       1App   -0.450768     4Ap    -0.438307

  @DF-RHF Final Energy:   -75.81594133713460

   => Energetics <=

    Nuclear Repulsion Energy =              6.7623825226048853
    One-Electron Energy =                -118.7272949277785159
    Two-Electron Energy =                  36.1489710680390317
    Total Energy =                        -75.8159413371346034
  Basis Set: (6-31G AUX)
    Blend: CC-PVDZ-RI
    Molecular point group: cs

    Geometry (in Angstrom), charge = 0, multiplicity = 1:

       Center              X                  Y                   Z               Mass
    ------------   -----------------  -----------------  -----------------  -----------------
           O          0.039170205645    -0.000695862357     0.000000000000    15.994914619560
           H          0.039170205645    -1.200695862357     0.000000000000     1.007825032070
           H         -0.660829794355     1.211739702943     0.000000000000     1.007825032070

  Basis Set: 6-31G
    Blend: 6-31G
  Basis Set: (6-31G AUX)
    Blend: CC-PVDZ-JKFIT
  Basis Set: (6-31G AUX)
    Blend: CC-PVDZ-JKFIT
	 Reference Energy          =     -75.8159413371346034 [Eh]
	 Singles Energy            =      -0.0000000000000000 [Eh]
	 Same-Spin Energy          =      -0.0354577836171072 [Eh]
	 Opposite-Spin Energy      =      -0.1176955455567843 [Eh]
	 Correlation Energy        =      -0.1531533291738915 [Eh]
	 Total Energy              =     -75.9690946663084929 [Eh]

	 ================> DF-SCS-MP2 Energies <==================
	-----------------------------------------------------------
	 SCS Same-Spin Scale       =       0.3333333333333333 [-]
	 SCS Opposite-Spin Scale   =       1.2000000000000000 [-]
	 SCS Same-Spin Energy      =      -0.0118192612057024 [Eh]
	 SCS Opposite-Spin Energy  =      -0.1412346546681412 [Eh]
	 SCS Correlation Energy    =      -0.1530539158738436 [Eh]
	 SCS Total Energy          =     -75.9689952530084440 [Eh]
	-----------------------------------------------------------

  -Total Gradient:
     Atom            X                  Y                   Z
    ------   -----------------  -----------------  -----------------
       1       -0.022758520405    -0.012990945319     0.000000000000
       2        0.044646586056    -0.101457299262    -0.000000000000
       3       -0.021888065651     0.114448244581    -0.000000000000

*** Psi4 exiting successfully. Buy a developer a beer!
