                               Psi4 1.2a1.dev429

  ==> Input File <==

--------------------------------------------------------------------------
# density-fitted hartree fock energies and gradients with 6-31g
molecule h20 {
0 1
O 0.0000000000 0.0000000000 0.0000000000
H 0.0000000000 0.0000000000 0.7000000000
H 0.0000000000 0.3420201433 -0.9396926208
}

set basis 6-31g

gradient('hf')
--------------------------------------------------------------------------

    Molecular point group: cs
  Charge       = 0
  Multiplicity = 1
  Basis Set: 6-31G
    Blend: 6-31G
  Basis Set: (6-31G AUX)
    Blend: CC-PVDZ-JKFIT

    Orbital Energies (a.u.)
    -----------------------

    Doubly Occupied:

       1Ap   -20.501221     2Ap    -1.390757     3Ap    -0.840005
       4Ap    -0.492985     1App   -0.488663

  @DF-RHF Final Energy:   -75.82956115204267

   => Energetics <=

    Nuclear Repulsion Energy =             10.5970870024449226
    One-Electron Energy =                -125.4260346909033927
    Two-Electron Energy =                  38.9993865364157983
    Total Energy =                        -75.8295611520426718
    Molecular point group: cs

    Geometry (in Angstrom), charge = 0, multiplicity = 1:

       Center              X                  Y                   Z               Mass
    ------------   -----------------  -----------------  -----------------  -----------------
           O          0.019138570497    -0.013412584641     0.000000000000    15.994914619560
           H          0.019138570497    -0.713412584641     0.000000000000     1.007825032070
           H         -0.322881572803     0.926280036159     0.000000000000     1.007825032070

  Basis Set: 6-31G
    Blend: 6-31G
  Basis Set: (6-31G AUX)
    Blend: CC-PVDZ-JKFIT

  -Total Gradient:
     Atom            X                  Y                   Z
    ------   -----------------  -----------------  -----------------
       1       -0.015045707944    -0.802682361551     0.000000000000
       2        0.026924166726     0.714941866540     0.000000000000
       3       -0.011878458782     0.087740495012     0.000000000000

*** Psi4 exiting successfully. Buy a developer a beer!
