                               Psi4 1.2a1.dev429

  ==> Input File <==

--------------------------------------------------------------------------
# density-fitted hartree fock energies and gradients with 6-31g
molecule h2o {
0 1
O 0.0000000000 0.0000000000 0.0000000000
H 0.0000000000 0.0000000000 1.4000000000
H 0.0000000000 0.0000000000 -1.3000000000
}

set basis 6-31g

gradient('mp2')
--------------------------------------------------------------------------

    Molecular point group: c2v
  Charge       = 0
  Multiplicity = 1
  Basis Set: 6-31G
    Blend: 6-31G
  Basis Set: (6-31G AUX)
    Blend: CC-PVDZ-JKFIT

    Orbital Energies (a.u.)
    -----------------------

    Doubly Occupied:

       1A1   -20.506094     2A1    -1.146845     3A1    -0.534433
       1B2    -0.410947     1B1    -0.410947

  @DF-RHF Final Energy:   -75.76192679864066

   => Energetics <=

    Nuclear Repulsion Energy =              6.4763364518930810
    One-Electron Energy =                -118.4579945616418684
    Two-Electron Energy =                  36.2197313111081343
    Total Energy =                        -75.7619267986406584
  Basis Set: (6-31G AUX)
    Blend: CC-PVDZ-RI
    Molecular point group: c2v

    Geometry (in Angstrom), charge = 0, multiplicity = 1:

       Center              X                  Y                   Z               Mass
    ------------   -----------------  -----------------  -----------------  -----------------
           O          0.000000000000     0.000000000000    -0.005595743664    15.994914619560
           H          0.000000000000     0.000000000000     1.394404256336     1.007825032070
           H          0.000000000000     0.000000000000    -1.305595743664     1.007825032070

  Basis Set: 6-31G
    Blend: 6-31G
  Basis Set: (6-31G AUX)
    Blend: CC-PVDZ-JKFIT
  Basis Set: (6-31G AUX)
    Blend: CC-PVDZ-JKFIT
	 Reference Energy          =     -75.7619267986406584 [Eh]
	 Singles Energy            =      -0.0000000000000000 [Eh]
	 Same-Spin Energy          =      -0.0344466846892181 [Eh]
	 Opposite-Spin Energy      =      -0.1099244533244169 [Eh]
	 Correlation Energy        =      -0.1443711380136350 [Eh]
	 Total Energy              =     -75.9062979366542976 [Eh]

	 ================> DF-SCS-MP2 Energies <==================
	-----------------------------------------------------------
	 SCS Same-Spin Scale       =       0.3333333333333333 [-]
	 SCS Opposite-Spin Scale   =       1.2000000000000000 [-]
	 SCS Same-Spin Energy      =      -0.0114822282297394 [Eh]
	 SCS Opposite-Spin Energy  =      -0.1319093439893003 [Eh]
	 SCS Correlation Energy    =      -0.1433915722190397 [Eh]
	 SCS Total Energy          =     -75.9053183708597032 [Eh]
	-----------------------------------------------------------

  -Total Gradient:
     Atom            X                  Y                   Z
    ------   -----------------  -----------------  -----------------
       1        0.000000000000     0.000000000000    -0.003213223258
       2       -0.000000000000     0.000000000000     0.130131025988
       3        0.000000000000    -0.000000000000    -0.126917802730

*** Psi4 exiting successfully. Buy a developer a beer!
