                               Psi4 1.2a1.dev429

  ==> Input File <==

--------------------------------------------------------------------------
# density-fitted hartree fock energies and gradients with 6-31g
molecule h20 {
0 1
O 0.0000000000 0.0000000000 0.0000000000
H 0.0000000000 0.0000000000 0.7000000000
H 0.0000000000 0.5362311102 -0.4499513268
}

set basis 6-31g

gradient('hf')
--------------------------------------------------------------------------

    Molecular point group: c2v
  Charge       = 0
  Multiplicity = 1
  Basis Set: 6-31G
    Blend: 6-31G
  Basis Set: (6-31G AUX)
    Blend: CC-PVDZ-JKFIT

    Orbital Energies (a.u.)
    -----------------------

    Doubly Occupied:

       1A1   -20.503636     2A1    -1.500933     1B2    -0.948690
       3A1    -0.556315     1B1    -0.522287

  @DF-RHF Final Energy:   -75.73872725773603

   => Energetics <=

    Nuclear Repulsion Energy =             12.5125379440994120
    One-Electron Energy =                -128.4388093453064528
    Two-Electron Energy =                  40.1875441434710154
    Total Energy =                        -75.7387272577360307
    Molecular point group: c2v

    Geometry (in Angstrom), charge = 0, multiplicity = 1:

       Center              X                  Y                   Z               Mass
    ------------   -----------------  -----------------  -----------------  -----------------
           O         -0.000000000000     0.000000000000    -0.033108088444    15.994914619560
           H          0.000000000000    -0.634415450938     0.262724694778     1.007825032070
           H         -0.000000000000     0.634415450938     0.262724694778     1.007825032070

  Basis Set: 6-31G
    Blend: 6-31G
  Basis Set: (6-31G AUX)
    Blend: CC-PVDZ-JKFIT

  -Total Gradient:
     Atom            X                  Y                   Z
    ------   -----------------  -----------------  -----------------
       1       -0.000000000000     0.000000000000     0.614697419497
       2       -0.000000000000     0.643772051035    -0.307348709749
       3        0.000000000000    -0.643772051035    -0.307348709749

*** Psi4 exiting successfully. Buy a developer a beer!
