                               Psi4 1.2a1.dev429

  ==> Input File <==

--------------------------------------------------------------------------
# density-fitted hartree fock energies and gradients with 6-31g
molecule h2o {
0 1
O 0.0000000000 0.0000000000 0.0000000000
H 0.0000000000 0.0000000000 1.4000000000
H 0.0000000000 0.2736161147 -0.7517540966
}

set basis 6-31g

gradient('mp2')
--------------------------------------------------------------------------

    Molecular point group: cs
  Charge       = 0
  Multiplicity = 1
  Basis Set: 6-31G
    Blend: 6-31G
  Basis Set: (6-31G AUX)
    Blend: CC-PVDZ-JKFIT

    Orbital Energies (a.u.)
    -----------------------

    Doubly Occupied:

       1Ap   -20.501288     2Ap    -1.293718     3Ap    -0.669562
       1App   -0.448212     4Ap    -0.443880

  @DF-RHF Final Energy:   -75.80769205917619

   => Energetics <=

    Nuclear Repulsion Energy =              8.5596056570728596
    One-Electron Energy =                -122.0212743146196033
    Two-Electron Energy =                  37.6539765983705621
    Total Energy =                        -75.8076920591761763
  Basis Set: (6-31G AUX)
    Blend: CC-PVDZ-RI
    Molecular point group: cs

    Geometry (in Angstrom), charge = 0, multiplicity = 1:

       Center              X                  Y                   Z               Mass
    ------------   -----------------  -----------------  -----------------  -----------------
           O          0.015310856401     0.036274179064     0.000000000000    15.994914619560
           H          0.015310856401    -1.363725820936     0.000000000000     1.007825032070
           H         -0.258305258299     0.788028275664     0.000000000000     1.007825032070

  Basis Set: 6-31G
    Blend: 6-31G
  Basis Set: (6-31G AUX)
    Blend: CC-PVDZ-JKFIT
  Basis Set: (6-31G AUX)
    Blend: CC-PVDZ-JKFIT
	 Reference Energy          =     -75.8076920591761905 [Eh]
	 Singles Energy            =      -0.0000000000000000 [Eh]
	 Same-Spin Energy          =      -0.0321778670089436 [Eh]
	 Opposite-Spin Energy      =      -0.1033077980326787 [Eh]
	 Correlation Energy        =      -0.1354856650416223 [Eh]
	 Total Energy              =     -75.9431777242178185 [Eh]

	 ================> DF-SCS-MP2 Energies <==================
	-----------------------------------------------------------
	 SCS Same-Spin Scale       =       0.3333333333333333 [-]
	 SCS Opposite-Spin Scale   =       1.2000000000000000 [-]
	 SCS Same-Spin Energy      =      -0.0107259556696479 [Eh]
	 SCS Opposite-Spin Energy  =      -0.1239693576392144 [Eh]
	 SCS Correlation Energy    =      -0.1346953133088623 [Eh]
	 SCS Total Energy          =     -75.9423873724850580 [Eh]
	-----------------------------------------------------------

  -Total Gradient:
     Atom            X                  Y                   Z
    ------   -----------------  -----------------  -----------------
       1       -0.177614734671     0.414364256195     0.000000000000
       2        0.026993975246    -0.138656046671    -0.000000000000
       3        0.150620759425    -0.275708209524    -0.000000000000

*** Psi4 exiting successfully. Buy a developer a beer!
