                               Psi4 1.2a1.dev429

  ==> Input File <==

--------------------------------------------------------------------------
# density-fitted hartree fock energies and gradients with 6-31g
molecule h20 {
0 1
O 0.0000000000 0.0000000000 0.0000000000
H 0.0000000000 0.0000000000 1.3000000000
H 0.0000000000 1.1000000000 0.0000000000
}

set basis 6-31g

gradient('hf')
--------------------------------------------------------------------------

    Molecular point group: cs
  Charge       = 0
  Multiplicity = 1
  Basis Set: 6-31G
    Blend: 6-31G
  Basis Set: (6-31G AUX)
    Blend: CC-PVDZ-JKFIT

    Orbital Energies (a.u.)
    -----------------------

    Doubly Occupied:

       1Ap   -20.616216     2Ap    -1.280322     3Ap    -0.594588
       4Ap    -0.537202     1App   -0.504783

  @DF-RHF Final Energy:   -75.90409523509743

   => Energetics <=

    Nuclear Repulsion Energy =              7.4157802033931945
    One-Electron Energy =                -119.5735308849361758
    Two-Electron Energy =                  36.2536554464455492
    Total Energy =                        -75.9040952350974294
    Molecular point group: cs

    Geometry (in Angstrom), charge = 0, multiplicity = 1:

       Center              X                  Y                   Z               Mass
    ------------   -----------------  -----------------  -----------------  -----------------
           O          0.061553180300     0.072744667627     0.000000000000    15.994914619560
           H          0.061553180300    -1.227255332373     0.000000000000     1.007825032070
           H         -1.038446819700     0.072744667627     0.000000000000     1.007825032070

  Basis Set: 6-31G
    Blend: 6-31G
  Basis Set: (6-31G AUX)
    Blend: CC-PVDZ-JKFIT

  -Total Gradient:
     Atom            X                  Y                   Z
    ------   -----------------  -----------------  -----------------
       1        0.103538929109     0.140157530070     0.000000000000
       2       -0.014308135464    -0.123247914171     0.000000000000
       3       -0.089230793645    -0.016909615899     0.000000000000

*** Psi4 exiting successfully. Buy a developer a beer!
