                               Psi4 1.2.1 release

  ==> Input File <==

--------------------------------------------------------------------------
# density fitted hartree fock
molecule h2o {
0 1
H 0.0000000000 0.0000000000 1.1125000000
H 0.0000000000 0.8118988160 -0.4687500000
O 0.0000000000 0.0000000000 0.0000000000
}

set basis 6-31g
energy('hf')

--------------------------------------------------------------------------

    Molecular point group: cs

    Geometry (in Angstrom), charge = 0, multiplicity = 1:

       Center              X                  Y                   Z               Mass
    ------------   -----------------  -----------------  -----------------  -----------------
         H            0.045431776551    -1.076477400165     0.000000000000     1.007825032070
         H           -0.766467039449     0.504772599835     0.000000000000     1.007825032070
         O            0.045431776551     0.036022599835     0.000000000000    15.994914619560

  Charge       = 0
  Multiplicity = 1
  Basis Set: 6-31G
    Blend: 6-31G
  Basis Set: (6-31G AUX)
    Blend: CC-PVDZ-JKFIT

    Orbital Energies [Eh]
    ---------------------

    Doubly Occupied:

       1Ap   -20.558585     2Ap    -1.314219     3Ap    -0.695141
       4Ap    -0.520192     1App   -0.489261

  @DF-RHF Final Energy:   -75.96204801612612

   => Energetics <=

    Nuclear Repulsion Energy =              8.6186722852804216
    One-Electron Energy =                -122.0066438394364923
    Two-Electron Energy =                  37.4259235380299558
    Total Energy =                        -75.9620480161261185

  Dipole Moment: [D]
     X:    -1.9655      Y:    -1.3053      Z:     0.0000     Total:     2.3594

*** Psi4 exiting successfully. Buy a developer a beer!
