                               Psi4 1.2a1.dev429

  ==> Input File <==

--------------------------------------------------------------------------
# density-fitted hartree fock energies and gradients with 6-31g
molecule h20 {
0 1
O 0.0000000000 0.0000000000 0.0000000000
H 0.0000000000 0.0000000000 1.4000000000
H 0.0000000000 0.5142300877 -0.6128355545
}

set basis 6-31g

gradient('hf')
--------------------------------------------------------------------------

    Molecular point group: cs
  Charge       = 0
  Multiplicity = 1
  Basis Set: 6-31G
    Blend: 6-31G
  Basis Set: (6-31G AUX)
    Blend: CC-PVDZ-JKFIT

    Orbital Energies (a.u.)
    -----------------------

    Doubly Occupied:

       1Ap   -20.533653     2Ap    -1.321642     3Ap    -0.677137
       1App   -0.471163     4Ap    -0.466743

  @DF-RHF Final Energy:   -75.83253916550923

   => Energetics <=

    Nuclear Repulsion Energy =              8.5703620889075900
    One-Electron Energy =                -121.8651254034122644
    Two-Electron Energy =                  37.4622241489954462
    Total Energy =                        -75.8325391655092318
    Molecular point group: cs

    Geometry (in Angstrom), charge = 0, multiplicity = 1:

       Center              X                  Y                   Z               Mass
    ------------   -----------------  -----------------  -----------------  -----------------
           O          0.028774997549     0.044047704581     0.000000000000    15.994914619560
           H          0.028774997549    -1.355952295419     0.000000000000     1.007825032070
           H         -0.485455090151     0.656883259081     0.000000000000     1.007825032070

  Basis Set: 6-31G
    Blend: 6-31G
  Basis Set: (6-31G AUX)
    Blend: CC-PVDZ-JKFIT

  -Total Gradient:
     Atom            X                  Y                   Z
    ------   -----------------  -----------------  -----------------
       1       -0.253860735634     0.343902833555     0.000000000000
       2        0.027215745465    -0.147893174536     0.000000000000
       3        0.226644990169    -0.196009659019     0.000000000000

*** Psi4 exiting successfully. Buy a developer a beer!
