                               Psi4 1.3.1 release

  ==> Input File <==

--------------------------------------------------------------------------
# density fitted MP2
molecule h2o {
0 1
H 0.0000000000 0.0000000000 0.9375000000
H 0.0000000000 0.8427281322 -0.1109472634
O 0.0000000000 0.0000000000 0.0000000000
}

set basis 6-31g
energy('mp2')

--------------------------------------------------------------------------

    Molecular point group: cs

    Geometry (in Angstrom), charge = 0, multiplicity = 1:

       Center              X                  Y                   Z               Mass
    ------------   -----------------  -----------------  -----------------  -----------------
         H            0.047156906066    -0.891248227609     0.000000000000     1.007825032230
         H           -0.795571226134     0.157199035791     0.000000000000     1.007825032230
         O            0.047156906066     0.046251772391     0.000000000000    15.994914619570

  Charge       = 0
  Multiplicity = 1
  Basis Set: 6-31G
    Blend: 6-31G
  Basis Set: (6-31G AUX)
    Blend: CC-PVDZ-JKFIT

    Orbital Energies [Eh]
    ---------------------

    Doubly Occupied:

       1Ap   -20.552083     2Ap    -1.405186     3Ap    -0.732681
       4Ap    -0.583391     1App   -0.508576

  @DF-RHF Final Energy:   -75.96384696783646

   => Energetics <=

    Nuclear Repulsion Energy =              9.8895329393824660
    One-Electron Energy =                -124.1429251976342556
    Two-Electron Energy =                  38.2895452904153331
    Total Energy =                        -75.9638469678364601

  Dipole Moment: [D]
     X:    -2.0208      Y:    -1.8111      Z:     0.0000     Total:     2.7136

  Basis Set: (6-31G AUX)
    Blend: CC-PVDZ-RI
	 Reference Energy          =     -75.9638469678364601 [Eh]
	 Singles Energy            =      -0.0000000000000000 [Eh]
	 Same-Spin Energy          =      -0.0286946694527204 [Eh]
	 Opposite-Spin Energy      =      -0.0945689899417289 [Eh]
	 Correlation Energy        =      -0.1232636593944493 [Eh]
	 Total Energy              =     -76.0871106272309135 [Eh]

	 ================> DF-SCS-MP2 Energies <==================
	-----------------------------------------------------------
	 SCS Same-Spin Scale       =       0.3333333333333333 [-]
	 SCS Opposite-Spin Scale   =       1.2000000000000000 [-]
	 SCS Same-Spin Energy      =      -0.0095648898175735 [Eh]
	 SCS Opposite-Spin Energy  =      -0.1134827879300747 [Eh]
	 SCS Correlation Energy    =      -0.1230476777476481 [Eh]
	 SCS Total Energy          =     -76.0868946455841098 [Eh]
	-----------------------------------------------------------

*** Psi4 exiting successfully. Buy a developer a beer!
