                               Psi4 1.2a1.dev429

  ==> Input File <==

--------------------------------------------------------------------------
# density-fitted hartree fock energies and gradients with 6-31g
molecule h20 {
0 1
O 0.0000000000 0.0000000000 0.0000000000
H 0.0000000000 0.0000000000 0.8000000000
H 0.0000000000 0.4499513268 -0.5362311102
}

set basis 6-31g

gradient('hf')
--------------------------------------------------------------------------

    Molecular point group: cs
  Charge       = 0
  Multiplicity = 1
  Basis Set: 6-31G
    Blend: 6-31G
  Basis Set: (6-31G AUX)
    Blend: CC-PVDZ-JKFIT

    Orbital Energies (a.u.)
    -----------------------

    Doubly Occupied:

       1Ap   -20.504404     2Ap    -1.452633     3Ap    -0.918634
       4Ap    -0.533439     1App   -0.511906

  @DF-RHF Final Energy:   -75.82303875468676

   => Energetics <=

    Nuclear Repulsion Energy =             11.7148268893086787
    One-Electron Energy =                -127.2336988971556053
    Two-Electron Energy =                  39.6958332531601741
    Total Energy =                        -75.8230387546867490
    Molecular point group: cs

    Geometry (in Angstrom), charge = 0, multiplicity = 1:

       Center              X                  Y                   Z               Mass
    ------------   -----------------  -----------------  -----------------  -----------------
           O          0.025178122859     0.014759830938     0.000000000000    15.994914619560
           H          0.025178122859    -0.785240169062     0.000000000000     1.007825032070
           H         -0.424773203941     0.550990941138     0.000000000000     1.007825032070

  Basis Set: 6-31G
    Blend: 6-31G
  Basis Set: (6-31G AUX)
    Blend: CC-PVDZ-JKFIT

  -Total Gradient:
     Atom            X                  Y                   Z
    ------   -----------------  -----------------  -----------------
       1       -0.494545878794     0.267528368329     0.000000000000
       2        0.019330189347     0.264443138472     0.000000000000
       3        0.475215689447    -0.531971506800     0.000000000000

*** Psi4 exiting successfully. Buy a developer a beer!
