                               Psi4 1.2a1.dev429

  ==> Input File <==

--------------------------------------------------------------------------
# density-fitted hartree fock energies and gradients with 6-31g
molecule h2o {
0 1
O 0.0000000000 0.0000000000 0.0000000000
H 0.0000000000 0.0000000000 1.2000000000
H 0.0000000000 1.2124355653 -0.7000000000
}

set basis 6-31g

gradient('mp2')
--------------------------------------------------------------------------

    Molecular point group: cs
  Charge       = 0
  Multiplicity = 1
  Basis Set: 6-31G
    Blend: 6-31G
  Basis Set: (6-31G AUX)
    Blend: CC-PVDZ-JKFIT

    Orbital Energies (a.u.)
    -----------------------

    Doubly Occupied:

       1Ap   -20.603739     2Ap    -1.232587     3Ap    -0.575997
       1App   -0.485143     4Ap    -0.481122

  @DF-RHF Final Energy:   -75.85323518708172

   => Energetics <=

    Nuclear Repulsion Energy =              6.7865022409731468
    One-Electron Energy =                -118.5222995124182575
    Two-Electron Energy =                  35.8825620843633857
    Total Energy =                        -75.8532351870817223
  Basis Set: (6-31G AUX)
    Blend: CC-PVDZ-RI
    Molecular point group: cs

    Geometry (in Angstrom), charge = 0, multiplicity = 1:

       Center              X                  Y                   Z               Mass
    ------------   -----------------  -----------------  -----------------  -----------------
           O          0.067844786321     0.027978718318     0.000000000000    15.994914619560
           H          0.067844786321    -1.172021281682     0.000000000000     1.007825032070
           H         -1.144590778979     0.727978718318     0.000000000000     1.007825032070

  Basis Set: 6-31G
    Blend: 6-31G
  Basis Set: (6-31G AUX)
    Blend: CC-PVDZ-JKFIT
  Basis Set: (6-31G AUX)
    Blend: CC-PVDZ-JKFIT
	 Reference Energy          =     -75.8532351870817223 [Eh]
	 Singles Energy            =      -0.0000000000000000 [Eh]
	 Same-Spin Energy          =      -0.0360903839469014 [Eh]
	 Opposite-Spin Energy      =      -0.1232702630797015 [Eh]
	 Correlation Energy        =      -0.1593606470266029 [Eh]
	 Total Energy              =     -76.0125958341083248 [Eh]

	 ================> DF-SCS-MP2 Energies <==================
	-----------------------------------------------------------
	 SCS Same-Spin Scale       =       0.3333333333333333 [-]
	 SCS Opposite-Spin Scale   =       1.2000000000000000 [-]
	 SCS Same-Spin Energy      =      -0.0120301279823005 [Eh]
	 SCS Opposite-Spin Energy  =      -0.1479243156956417 [Eh]
	 SCS Correlation Energy    =      -0.1599544436779422 [Eh]
	 SCS Total Energy          =     -76.0131896307596691 [Eh]
	-----------------------------------------------------------

  -Total Gradient:
     Atom            X                  Y                   Z
    ------   -----------------  -----------------  -----------------
       1        0.054895951616     0.021975907379    -0.000000000000
       2        0.025655592714    -0.093874813396    -0.000000000000
       3       -0.080551544330     0.071898906017     0.000000000000

*** Psi4 exiting successfully. Buy a developer a beer!
