                               Psi4 1.2a1.dev429

  ==> Input File <==

--------------------------------------------------------------------------
# density-fitted hartree fock energies and gradients with 6-31g
molecule h20 {
0 1
O 0.0000000000 0.0000000000 0.0000000000
H 0.0000000000 0.0000000000 1.2000000000
H 0.0000000000 0.0000000000 -0.7000000000
}

set basis 6-31g

gradient('hf')
--------------------------------------------------------------------------

    Molecular point group: c2v
  Charge       = 0
  Multiplicity = 1
  Basis Set: 6-31G
    Blend: 6-31G
  Basis Set: (6-31G AUX)
    Blend: CC-PVDZ-JKFIT

    Orbital Energies (a.u.)
    -----------------------

    Doubly Occupied:

       1A1   -20.489440     2A1    -1.353915     3A1    -0.757585
       1B2    -0.463441     1B1    -0.463441

  @DF-RHF Final Energy:   -75.76969938386607

   => Energetics <=

    Nuclear Repulsion Energy =              9.8541019043200500
    One-Electron Energy =                -124.1919582790947487
    Two-Electron Energy =                  38.5681569909086335
    Total Energy =                        -75.7696993838660688
    Molecular point group: c2v

    Geometry (in Angstrom), charge = 0, multiplicity = 1:

       Center              X                  Y                   Z               Mass
    ------------   -----------------  -----------------  -----------------  -----------------
           O          0.000000000000     0.000000000000    -0.027978718318    15.994914619560
           H          0.000000000000     0.000000000000     1.172021281682     1.007825032070
           H          0.000000000000     0.000000000000    -0.727978718318     1.007825032070

  Basis Set: 6-31G
    Blend: 6-31G
  Basis Set: (6-31G AUX)
    Blend: CC-PVDZ-JKFIT

  -Total Gradient:
     Atom            X                  Y                   Z
    ------   -----------------  -----------------  -----------------
       1        0.000000000000     0.000000000000    -0.891293764693
       2       -0.000000000000     0.000000000000     0.169180083825
       3       -0.000000000000     0.000000000000     0.722113680868

*** Psi4 exiting successfully. Buy a developer a beer!
