                               Psi4 1.2a1.dev429

  ==> Input File <==

--------------------------------------------------------------------------
# density-fitted hartree fock energies and gradients with 6-31g
molecule h2o {
0 1
O 0.0000000000 0.0000000000 0.0000000000
H 0.0000000000 0.0000000000 1.1000000000
H 0.0000000000 1.0832885283 -0.1910129954
}

set basis 6-31g

gradient('mp2')
--------------------------------------------------------------------------

    Molecular point group: c2v
  Charge       = 0
  Multiplicity = 1
  Basis Set: 6-31G
    Blend: 6-31G
  Basis Set: (6-31G AUX)
    Blend: CC-PVDZ-JKFIT

    Orbital Energies (a.u.)
    -----------------------

    Doubly Occupied:

       1A1   -20.591938     2A1    -1.297552     1B2    -0.632403
       3A1    -0.547547     1B1    -0.499033

  @DF-RHF Final Energy:   -75.95180694163146

   => Energetics <=

    Nuclear Repulsion Energy =              8.0111193002194199
    One-Electron Energy =                -120.7889048729928447
    Two-Electron Energy =                  36.8259786311419646
    Total Energy =                        -75.9518069416314603
  Basis Set: (6-31G AUX)
    Blend: CC-PVDZ-RI
    Molecular point group: c2v

    Geometry (in Angstrom), charge = 0, multiplicity = 1:

       Center              X                  Y                   Z               Mass
    ------------   -----------------  -----------------  -----------------  -----------------
           O         -0.000000000000     0.000000000000    -0.079131243268    15.994914619560
           H          0.000000000000    -0.842648887414     0.627935127393     1.007825032070
           H         -0.000000000000     0.842648887414     0.627935127393     1.007825032070

  Basis Set: 6-31G
    Blend: 6-31G
  Basis Set: (6-31G AUX)
    Blend: CC-PVDZ-JKFIT
  Basis Set: (6-31G AUX)
    Blend: CC-PVDZ-JKFIT
	 Reference Energy          =     -75.9518069416314603 [Eh]
	 Singles Energy            =      -0.0000000000000000 [Eh]
	 Same-Spin Energy          =      -0.0330878618254939 [Eh]
	 Opposite-Spin Energy      =      -0.1095543290108839 [Eh]
	 Correlation Energy        =      -0.1426421908363779 [Eh]
	 Total Energy              =     -76.0944491324678438 [Eh]

	 ================> DF-SCS-MP2 Energies <==================
	-----------------------------------------------------------
	 SCS Same-Spin Scale       =       0.3333333333333333 [-]
	 SCS Opposite-Spin Scale   =       1.2000000000000000 [-]
	 SCS Same-Spin Energy      =      -0.0110292872751646 [Eh]
	 SCS Opposite-Spin Energy  =      -0.1314651948130607 [Eh]
	 SCS Correlation Energy    =      -0.1424944820882253 [Eh]
	 SCS Total Energy          =     -76.0943014237196849 [Eh]
	-----------------------------------------------------------

  -Total Gradient:
     Atom            X                  Y                   Z
    ------   -----------------  -----------------  -----------------
       1        0.000000000000     0.000000000004    -0.094847423060
       2       -0.000000000000    -0.050111782634     0.047423711531
       3       -0.000000000000     0.050111782630     0.047423711528

*** Psi4 exiting successfully. Buy a developer a beer!
