                               Psi4 1.2a1.dev429

  ==> Input File <==

--------------------------------------------------------------------------
# density-fitted hartree fock energies and gradients with 6-31g
molecule h2o {
0 1
O 0.0000000000 0.0000000000 0.0000000000
H 0.0000000000 0.0000000000 1.2000000000
H 0.0000000000 0.7878462024 -0.1389185421
}

set basis 6-31g

gradient('mp2')
--------------------------------------------------------------------------

    Molecular point group: cs
  Charge       = 0
  Multiplicity = 1
  Basis Set: 6-31G
    Blend: 6-31G
  Basis Set: (6-31G AUX)
    Blend: CC-PVDZ-JKFIT

    Orbital Energies (a.u.)
    -----------------------

    Doubly Occupied:

       1Ap   -20.568841     2Ap    -1.378474     3Ap    -0.692852
       4Ap    -0.550397     1App   -0.505054

  @DF-RHF Final Energy:   -75.90874014836736

   => Energetics <=

    Nuclear Repulsion Energy =              9.1602526353622622
    One-Electron Energy =                -122.7467467078971737
    Two-Electron Energy =                  37.6777539241675612
    Total Energy =                        -75.9087401483673574
  Basis Set: (6-31G AUX)
    Blend: CC-PVDZ-RI
    Molecular point group: cs

    Geometry (in Angstrom), charge = 0, multiplicity = 1:

       Center              X                  Y                   Z               Mass
    ------------   -----------------  -----------------  -----------------  -----------------
           O          0.044085853950     0.059375398446     0.000000000000    15.994914619560
           H          0.044085853950    -1.140624601554     0.000000000000     1.007825032070
           H         -0.743760348450     0.198293940546     0.000000000000     1.007825032070

  Basis Set: 6-31G
    Blend: 6-31G
  Basis Set: (6-31G AUX)
    Blend: CC-PVDZ-JKFIT
  Basis Set: (6-31G AUX)
    Blend: CC-PVDZ-JKFIT
	 Reference Energy          =     -75.9087401483673574 [Eh]
	 Singles Energy            =      -0.0000000000000000 [Eh]
	 Same-Spin Energy          =      -0.0302621258584325 [Eh]
	 Opposite-Spin Energy      =      -0.1013583887779899 [Eh]
	 Correlation Energy        =      -0.1316205146364223 [Eh]
	 Total Energy              =     -76.0403606630037814 [Eh]

	 ================> DF-SCS-MP2 Energies <==================
	-----------------------------------------------------------
	 SCS Same-Spin Scale       =       0.3333333333333333 [-]
	 SCS Opposite-Spin Scale   =       1.2000000000000000 [-]
	 SCS Same-Spin Energy      =      -0.0100873752861442 [Eh]
	 SCS Opposite-Spin Energy  =      -0.1216300665335878 [Eh]
	 SCS Correlation Energy    =      -0.1317174418197320 [Eh]
	 SCS Total Energy          =     -76.0404575901870885 [Eh]
	-----------------------------------------------------------

  -Total Gradient:
     Atom            X                  Y                   Z
    ------   -----------------  -----------------  -----------------
       1       -0.314692230569     0.170820349350    -0.000000000000
       2       -0.009051977928    -0.099948083704    -0.000000000000
       3        0.323744208498    -0.070872265646     0.000000000000

*** Psi4 exiting successfully. Buy a developer a beer!
