                               Psi4 1.2a1.dev429

  ==> Input File <==

--------------------------------------------------------------------------
# density-fitted hartree fock energies and gradients with 6-31g
molecule h20 {
0 1
O 0.0000000000 0.0000000000 0.0000000000
H 0.0000000000 0.0000000000 0.7000000000
H 0.0000000000 0.0000000000 -1.3000000000
}

set basis 6-31g

gradient('hf')
--------------------------------------------------------------------------

    Molecular point group: c2v
  Charge       = 0
  Multiplicity = 1
  Basis Set: 6-31G
    Blend: 6-31G
  Basis Set: (6-31G AUX)
    Blend: CC-PVDZ-JKFIT

    Orbital Energies (a.u.)
    -----------------------

    Doubly Occupied:

       1A1   -20.483303     2A1    -1.341656     3A1    -0.720819
       1B2    -0.452398     1B1    -0.452398

  @DF-RHF Final Energy:   -75.73697067738570

   => Energetics <=

    Nuclear Repulsion Energy =              9.5688032608224720
    One-Electron Energy =                -123.7103990623843401
    Two-Electron Energy =                  38.4046251241761780
    Total Energy =                        -75.7369706773856848
    Molecular point group: c2v

    Geometry (in Angstrom), charge = 0, multiplicity = 1:

       Center              X                  Y                   Z               Mass
    ------------   -----------------  -----------------  -----------------  -----------------
           O          0.000000000000     0.000000000000     0.033574461982    15.994914619560
           H          0.000000000000     0.000000000000     0.733574461982     1.007825032070
           H          0.000000000000     0.000000000000    -1.266425538018     1.007825032070

  Basis Set: 6-31G
    Blend: 6-31G
  Basis Set: (6-31G AUX)
    Blend: CC-PVDZ-JKFIT

  -Total Gradient:
     Atom            X                  Y                   Z
    ------   -----------------  -----------------  -----------------
       1        0.000000000000     0.000000000000     0.901836075407
       2       -0.000000000000     0.000000000000    -0.726687597260
       3       -0.000000000000     0.000000000000    -0.175148478147

*** Psi4 exiting successfully. Buy a developer a beer!
