                               Psi4 1.2a1.dev429

  ==> Input File <==

--------------------------------------------------------------------------
# density-fitted hartree fock energies and gradients with 6-31g
molecule h2o {
0 1
O 0.0000000000 0.0000000000 0.0000000000
H 0.0000000000 0.0000000000 1.4000000000
H 0.0000000000 1.3155696691 -0.4788282007
}

set basis 6-31g

gradient('mp2')
--------------------------------------------------------------------------

    Molecular point group: c2v
  Charge       = 0
  Multiplicity = 1
  Basis Set: 6-31G
    Blend: 6-31G
  Basis Set: (6-31G AUX)
    Blend: CC-PVDZ-JKFIT

    Orbital Energies (a.u.)
    -----------------------

    Doubly Occupied:

       1A1   -20.630130     2A1    -1.222852     1B2    -0.534666
       1B1    -0.494846     3A1    -0.486188

  @DF-RHF Final Energy:   -75.81168416685401

   => Energetics <=

    Nuclear Repulsion Energy =              6.2784559871352394
    One-Electron Energy =                -117.4429153934413677
    Two-Electron Energy =                  35.3527752394521073
    Total Energy =                        -75.8116841668540076
  Basis Set: (6-31G AUX)
    Blend: CC-PVDZ-RI
    Molecular point group: c2v

    Geometry (in Angstrom), charge = 0, multiplicity = 1:

       Center              X                  Y                   Z               Mass
    ------------   -----------------  -----------------  -----------------  -----------------
           O         -0.000000000000     0.000000000000    -0.089868427859    15.994914619560
           H          0.000000000000    -1.146812862023     0.713138583019     1.007825032070
           H         -0.000000000000     1.146812862023     0.713138583019     1.007825032070

  Basis Set: 6-31G
    Blend: 6-31G
  Basis Set: (6-31G AUX)
    Blend: CC-PVDZ-JKFIT
  Basis Set: (6-31G AUX)
    Blend: CC-PVDZ-JKFIT
	 Reference Energy          =     -75.8116841668540076 [Eh]
	 Singles Energy            =      -0.0000000000000000 [Eh]
	 Same-Spin Energy          =      -0.0383448708345002 [Eh]
	 Opposite-Spin Energy      =      -0.1337229962207312 [Eh]
	 Correlation Energy        =      -0.1720678670552314 [Eh]
	 Total Energy              =     -75.9837520339092407 [Eh]

	 ================> DF-SCS-MP2 Energies <==================
	-----------------------------------------------------------
	 SCS Same-Spin Scale       =       0.3333333333333333 [-]
	 SCS Opposite-Spin Scale   =       1.2000000000000000 [-]
	 SCS Same-Spin Energy      =      -0.0127816236115001 [Eh]
	 SCS Opposite-Spin Energy  =      -0.1604675954648774 [Eh]
	 SCS Correlation Energy    =      -0.1732492190763775 [Eh]
	 SCS Total Energy          =     -75.9849333859303897 [Eh]
	-----------------------------------------------------------

  -Total Gradient:
     Atom            X                  Y                   Z
    ------   -----------------  -----------------  -----------------
       1       -0.000000000000    -0.000000000001    -0.088518130354
       2        0.000000000000    -0.090545715858     0.044259065177
       3       -0.000000000000     0.090545715859     0.044259065177

*** Psi4 exiting successfully. Buy a developer a beer!
