                               Psi4 1.2a1.dev429

  ==> Input File <==

--------------------------------------------------------------------------
# density-fitted hartree fock energies and gradients with 6-31g
molecule h2o {
0 1
O 0.0000000000 0.0000000000 0.0000000000
H 0.0000000000 0.0000000000 1.3000000000
H 0.0000000000 0.7660444431 -0.6427876097
}

set basis 6-31g

gradient('mp2')
--------------------------------------------------------------------------

    Molecular point group: cs
  Charge       = 0
  Multiplicity = 1
  Basis Set: 6-31G
    Blend: 6-31G
  Basis Set: (6-31G AUX)
    Blend: CC-PVDZ-JKFIT

    Orbital Energies (a.u.)
    -----------------------

    Doubly Occupied:

       1Ap   -20.565034     2Ap    -1.266221     3Ap    -0.642517
       4Ap    -0.482836     1App   -0.476709

  @DF-RHF Final Energy:   -75.90463535646539

   => Energetics <=

    Nuclear Repulsion Energy =              7.7432864618136463
    One-Electron Energy =                -120.4292088662687945
    Two-Electron Energy =                  36.7812870479897498
    Total Energy =                        -75.9046353564653913
  Basis Set: (6-31G AUX)
    Blend: CC-PVDZ-RI
    Molecular point group: cs

    Geometry (in Angstrom), charge = 0, multiplicity = 1:

       Center              X                  Y                   Z               Mass
    ------------   -----------------  -----------------  -----------------  -----------------
           O          0.042865883385     0.036775920687     0.000000000000    15.994914619560
           H          0.042865883385    -1.263224079313     0.000000000000     1.007825032070
           H         -0.723178559715     0.679563530387     0.000000000000     1.007825032070

  Basis Set: 6-31G
    Blend: 6-31G
  Basis Set: (6-31G AUX)
    Blend: CC-PVDZ-JKFIT
  Basis Set: (6-31G AUX)
    Blend: CC-PVDZ-JKFIT
	 Reference Energy          =     -75.9046353564653913 [Eh]
	 Singles Energy            =      -0.0000000000000000 [Eh]
	 Same-Spin Energy          =      -0.0333815845209100 [Eh]
	 Opposite-Spin Energy      =      -0.1101546657887136 [Eh]
	 Correlation Energy        =      -0.1435362503096235 [Eh]
	 Total Energy              =     -76.0481716067750142 [Eh]

	 ================> DF-SCS-MP2 Energies <==================
	-----------------------------------------------------------
	 SCS Same-Spin Scale       =       0.3333333333333333 [-]
	 SCS Opposite-Spin Scale   =       1.2000000000000000 [-]
	 SCS Same-Spin Energy      =      -0.0111271948403033 [Eh]
	 SCS Opposite-Spin Energy  =      -0.1321855989464563 [Eh]
	 SCS Correlation Energy    =      -0.1433127937867596 [Eh]
	 SCS Total Energy          =     -76.0479481502521537 [Eh]
	-----------------------------------------------------------

  -Total Gradient:
     Atom            X                  Y                   Z
    ------   -----------------  -----------------  -----------------
       1       -0.034371736426     0.076058418257     0.000000000000
       2        0.027750400360    -0.117595704947    -0.000000000000
       3        0.006621336066     0.041537286690     0.000000000000

*** Psi4 exiting successfully. Buy a developer a beer!
