                               Psi4 1.2a1.dev429

  ==> Input File <==

--------------------------------------------------------------------------
# density-fitted hartree fock energies and gradients with 6-31g
molecule h20 {
0 1
O 0.0000000000 0.0000000000 0.0000000000
H 0.0000000000 0.0000000000 0.7000000000
H 0.0000000000 0.5785088487 -0.6894399988
}

set basis 6-31g

gradient('hf')
--------------------------------------------------------------------------

    Molecular point group: cs
  Charge       = 0
  Multiplicity = 1
  Basis Set: 6-31G
    Blend: 6-31G
  Basis Set: (6-31G AUX)
    Blend: CC-PVDZ-JKFIT

    Orbital Energies (a.u.)
    -----------------------

    Doubly Occupied:

       1Ap   -20.509803     2Ap    -1.427442     3Ap    -0.870901
       4Ap    -0.523973     1App   -0.503742

  @DF-RHF Final Energy:   -75.84923448157468

   => Energetics <=

    Nuclear Repulsion Energy =             11.1031348757629118
    One-Electron Energy =                -126.2330163777732253
    Two-Electron Energy =                  39.2806470204356302
    Total Energy =                        -75.8492344815746833
    Molecular point group: cs

    Geometry (in Angstrom), charge = 0, multiplicity = 1:

       Center              X                  Y                   Z               Mass
    ------------   -----------------  -----------------  -----------------  -----------------
           O          0.032371872245     0.000590910598     0.000000000000    15.994914619560
           H          0.032371872245    -0.699409089402     0.000000000000     1.007825032070
           H         -0.546136976455     0.690030909398     0.000000000000     1.007825032070

  Basis Set: 6-31G
    Blend: 6-31G
  Basis Set: (6-31G AUX)
    Blend: CC-PVDZ-JKFIT

  -Total Gradient:
     Atom            X                  Y                   Z
    ------   -----------------  -----------------  -----------------
       1       -0.068254405519    -0.702801250990     0.000000000000
       2        0.027419128512     0.718289490859     0.000000000000
       3        0.040835277007    -0.015488239869     0.000000000000

*** Psi4 exiting successfully. Buy a developer a beer!
