                               Psi4 1.2a1.dev429

  ==> Input File <==

--------------------------------------------------------------------------
# density-fitted hartree fock energies and gradients with 6-31g
molecule h20 {
0 1
O 0.0000000000 0.0000000000 0.0000000000
H 0.0000000000 0.0000000000 0.8000000000
H 0.0000000000 0.4500000000 -0.7794228634
}

set basis 6-31g

gradient('hf')
--------------------------------------------------------------------------

    Molecular point group: cs
  Charge       = 0
  Multiplicity = 1
  Basis Set: 6-31G
    Blend: 6-31G
  Basis Set: (6-31G AUX)
    Blend: CC-PVDZ-JKFIT

    Orbital Energies (a.u.)
    -----------------------

    Doubly Occupied:

       1Ap   -20.509015     2Ap    -1.373243     3Ap    -0.842706
       4Ap    -0.503105     1App   -0.492131

  @DF-RHF Final Energy:   -75.93081810880365

   => Energetics <=

    Nuclear Repulsion Energy =             10.3177909785350579
    One-Electron Energy =                -125.0568207227827315
    Two-Electron Energy =                  38.8082116354440245
    Total Energy =                        -75.9308181088036491
    Molecular point group: cs

    Geometry (in Angstrom), charge = 0, multiplicity = 1:

       Center              X                  Y                   Z               Mass
    ------------   -----------------  -----------------  -----------------  -----------------
           O          0.025180846486     0.001151443817     0.000000000000    15.994914619560
           H          0.025180846486    -0.798848556183     0.000000000000     1.007825032070
           H         -0.424819153514     0.780574307217     0.000000000000     1.007825032070

  Basis Set: 6-31G
    Blend: 6-31G
  Basis Set: (6-31G AUX)
    Blend: CC-PVDZ-JKFIT

  -Total Gradient:
     Atom            X                  Y                   Z
    ------   -----------------  -----------------  -----------------
       1       -0.069276476632    -0.249844671922     0.000000000000
       2        0.028567935465     0.269566492749     0.000000000000
       3        0.040708541166    -0.019721820827     0.000000000000

*** Psi4 exiting successfully. Buy a developer a beer!
