                               Psi4 1.2a1.dev429

  ==> Input File <==

--------------------------------------------------------------------------
# density-fitted hartree fock energies and gradients with 6-31g
molecule h2o {
0 1
O 0.0000000000 0.0000000000 0.0000000000
H 0.0000000000 0.0000000000 1.4000000000
H 0.0000000000 0.1562833599 -0.8863269777
}

set basis 6-31g

gradient('mp2')
--------------------------------------------------------------------------

    Molecular point group: cs
  Charge       = 0
  Multiplicity = 1
  Basis Set: 6-31G
    Blend: 6-31G
  Basis Set: (6-31G AUX)
    Blend: CC-PVDZ-JKFIT

    Orbital Energies (a.u.)
    -----------------------

    Doubly Occupied:

       1Ap   -20.495886     2Ap    -1.240090     3Ap    -0.638304
       1App   -0.433012     4Ap    -0.431227

  @DF-RHF Final Energy:   -75.82965178397397

   => Energetics <=

    Nuclear Repulsion Energy =              7.9585813164393757
    One-Electron Energy =                -121.0994291584057123
    Two-Electron Energy =                  37.3111960579923547
    Total Energy =                        -75.8296517839739863
  Basis Set: (6-31G AUX)
    Blend: CC-PVDZ-RI
    Molecular point group: cs

    Geometry (in Angstrom), charge = 0, multiplicity = 1:

       Center              X                  Y                   Z               Mass
    ------------   -----------------  -----------------  -----------------  -----------------
           O          0.008745216209     0.028743825597     0.000000000000    15.994914619560
           H          0.008745216209    -1.371256174403     0.000000000000     1.007825032070
           H         -0.147538143691     0.915070803297     0.000000000000     1.007825032070

  Basis Set: 6-31G
    Blend: 6-31G
  Basis Set: (6-31G AUX)
    Blend: CC-PVDZ-JKFIT
  Basis Set: (6-31G AUX)
    Blend: CC-PVDZ-JKFIT
	 Reference Energy          =     -75.8296517839739721 [Eh]
	 Singles Energy            =      -0.0000000000000000 [Eh]
	 Same-Spin Energy          =      -0.0329216861787523 [Eh]
	 Opposite-Spin Energy      =      -0.1040612257330017 [Eh]
	 Correlation Energy        =      -0.1369829119117539 [Eh]
	 Total Energy              =     -75.9666346958857304 [Eh]

	 ================> DF-SCS-MP2 Energies <==================
	-----------------------------------------------------------
	 SCS Same-Spin Scale       =       0.3333333333333333 [-]
	 SCS Opposite-Spin Scale   =       1.2000000000000000 [-]
	 SCS Same-Spin Energy      =      -0.0109738953929174 [Eh]
	 SCS Opposite-Spin Energy  =      -0.1248734708796020 [Eh]
	 SCS Correlation Energy    =      -0.1358473662725194 [Eh]
	 SCS Total Energy          =     -75.9654991502464867 [Eh]
	-----------------------------------------------------------

  -Total Gradient:
     Atom            X                  Y                   Z
    ------   -----------------  -----------------  -----------------
       1       -0.060307050690     0.215705342123    -0.000000000000
       2        0.018480880506    -0.144050689029     0.000000000000
       3        0.041826170184    -0.071654653095    -0.000000000000

*** Psi4 exiting successfully. Buy a developer a beer!
