                               Psi4 1.2a1.dev429

  ==> Input File <==

--------------------------------------------------------------------------
# density-fitted hartree fock energies and gradients with 6-31g
molecule h2o {
0 1
O 0.0000000000 0.0000000000 0.0000000000
H 0.0000000000 0.0000000000 1.5000000000
H 0.0000000000 0.8863269777 -0.1562833599
}

set basis 6-31g

gradient('mp2')
--------------------------------------------------------------------------

    Molecular point group: cs
  Charge       = 0
  Multiplicity = 1
  Basis Set: 6-31G
    Blend: 6-31G
  Basis Set: (6-31G AUX)
    Blend: CC-PVDZ-JKFIT

    Orbital Energies (a.u.)
    -----------------------

    Doubly Occupied:

       1Ap   -20.598041     2Ap    -1.317788     3Ap    -0.641435
       1App   -0.502794     4Ap    -0.496196

  @DF-RHF Final Energy:   -75.86893918915953

   => Energetics <=

    Nuclear Repulsion Energy =              7.8077743507378257
    One-Electron Energy =                -120.2409172399250537
    Two-Electron Energy =                  36.5642037000276972
    Total Energy =                        -75.8689391891595335
  Basis Set: (6-31G AUX)
    Blend: CC-PVDZ-RI
    Molecular point group: cs

    Geometry (in Angstrom), charge = 0, multiplicity = 1:

       Center              X                  Y                   Z               Mass
    ------------   -----------------  -----------------  -----------------  -----------------
           O          0.049596585694     0.075190938745     0.000000000000    15.994914619560
           H          0.049596585694    -1.424809061255     0.000000000000     1.007825032070
           H         -0.836730392006     0.231474298645     0.000000000000     1.007825032070

  Basis Set: 6-31G
    Blend: 6-31G
  Basis Set: (6-31G AUX)
    Blend: CC-PVDZ-JKFIT
  Basis Set: (6-31G AUX)
    Blend: CC-PVDZ-JKFIT
	 Reference Energy          =     -75.8689391891595335 [Eh]
	 Singles Energy            =      -0.0000000000000000 [Eh]
	 Same-Spin Energy          =      -0.0334211494779908 [Eh]
	 Opposite-Spin Energy      =      -0.1168367499741430 [Eh]
	 Correlation Energy        =      -0.1502578994521339 [Eh]
	 Total Energy              =     -76.0191970886116621 [Eh]

	 ================> DF-SCS-MP2 Energies <==================
	-----------------------------------------------------------
	 SCS Same-Spin Scale       =       0.3333333333333333 [-]
	 SCS Opposite-Spin Scale   =       1.2000000000000000 [-]
	 SCS Same-Spin Energy      =      -0.0111403831593303 [Eh]
	 SCS Opposite-Spin Energy  =      -0.1402040999689716 [Eh]
	 SCS Correlation Energy    =      -0.1513444831283019 [Eh]
	 SCS Total Energy          =     -76.0202836722878317 [Eh]
	-----------------------------------------------------------

  -Total Gradient:
     Atom            X                  Y                   Z
    ------   -----------------  -----------------  -----------------
       1       -0.110830806999     0.118673177259     0.000000000000
       2        0.002127154205    -0.103105746634    -0.000000000000
       3        0.108703652794    -0.015567430625    -0.000000000000

*** Psi4 exiting successfully. Buy a developer a beer!
