                               Psi4 1.2a1.dev429

  ==> Input File <==

--------------------------------------------------------------------------
# density-fitted hartree fock energies and gradients with 6-31g
molecule h2o {
0 1
O 0.0000000000 0.0000000000 0.0000000000
H 0.0000000000 0.0000000000 1.1000000000
H 0.0000000000 1.2216004070 -0.4446261863
}

set basis 6-31g

gradient('mp2')
--------------------------------------------------------------------------

    Molecular point group: cs
  Charge       = 0
  Multiplicity = 1
  Basis Set: 6-31G
    Blend: 6-31G
  Basis Set: (6-31G AUX)
    Blend: CC-PVDZ-JKFIT

    Orbital Energies (a.u.)
    -----------------------

    Doubly Occupied:

       1Ap   -20.599001     2Ap    -1.263827     3Ap    -0.607570
       4Ap    -0.510357     1App   -0.492274

  @DF-RHF Final Energy:   -75.90595249274803

   => Energetics <=

    Nuclear Repulsion Energy =              7.3737487844545830
    One-Electron Energy =                -119.6133440327057968
    Two-Electron Energy =                  36.3336427555031918
    Total Energy =                        -75.9059524927480282
  Basis Set: (6-31G AUX)
    Blend: CC-PVDZ-RI
    Molecular point group: cs

    Geometry (in Angstrom), charge = 0, multiplicity = 1:

       Center              X                  Y                   Z               Mass
    ------------   -----------------  -----------------  -----------------  -----------------
           O          0.068357627369     0.036673038653     0.000000000000    15.994914619560
           H          0.068357627369    -1.063326961347     0.000000000000     1.007825032070
           H         -1.153242779631     0.481299224953     0.000000000000     1.007825032070

  Basis Set: 6-31G
    Blend: 6-31G
  Basis Set: (6-31G AUX)
    Blend: CC-PVDZ-JKFIT
  Basis Set: (6-31G AUX)
    Blend: CC-PVDZ-JKFIT
	 Reference Energy          =     -75.9059524927480282 [Eh]
	 Singles Energy            =      -0.0000000000000000 [Eh]
	 Same-Spin Energy          =      -0.0345717826984198 [Eh]
	 Opposite-Spin Energy      =      -0.1161398454378273 [Eh]
	 Correlation Energy        =      -0.1507116281362471 [Eh]
	 Total Energy              =     -76.0566641208842782 [Eh]

	 ================> DF-SCS-MP2 Energies <==================
	-----------------------------------------------------------
	 SCS Same-Spin Scale       =       0.3333333333333333 [-]
	 SCS Opposite-Spin Scale   =       1.2000000000000000 [-]
	 SCS Same-Spin Energy      =      -0.0115239275661399 [Eh]
	 SCS Opposite-Spin Energy  =      -0.1393678145253928 [Eh]
	 SCS Correlation Energy    =      -0.1508917420915327 [Eh]
	 SCS Total Energy          =     -76.0568442348395592 [Eh]
	-----------------------------------------------------------

  -Total Gradient:
     Atom            X                  Y                   Z
    ------   -----------------  -----------------  -----------------
       1        0.082180438700     0.020912510206     0.000000000000
       2        0.014802041589    -0.069539859249    -0.000000000000
       3       -0.096982480289     0.048627349043    -0.000000000000

*** Psi4 exiting successfully. Buy a developer a beer!
