                               Psi4 1.2a1.dev429

  ==> Input File <==

--------------------------------------------------------------------------
# density-fitted hartree fock energies and gradients with 6-31g
molecule h2o {
0 1
O 0.0000000000 0.0000000000 0.0000000000
H 0.0000000000 0.0000000000 1.5000000000
H 0.0000000000 0.2431074487 -1.3787308542
}

set basis 6-31g

gradient('mp2')
--------------------------------------------------------------------------

    Molecular point group: cs
  Charge       = 0
  Multiplicity = 1
  Basis Set: 6-31G
    Blend: 6-31G
  Basis Set: (6-31G AUX)
    Blend: CC-PVDZ-JKFIT

    Orbital Energies (a.u.)
    -----------------------

    Doubly Occupied:

       1Ap   -20.523955     2Ap    -1.140440     3Ap    -0.500493
       1App   -0.417126     4Ap    -0.409152

  @DF-RHF Final Energy:   -75.71640763972754

   => Energetics <=

    Nuclear Repulsion Energy =              6.0293192996671214
    One-Electron Energy =                -117.5091201520873057
    Two-Electron Energy =                  35.7633932126926339
    Total Energy =                        -75.7164076397275494
  Basis Set: (6-31G AUX)
    Blend: CC-PVDZ-RI
    Molecular point group: cs

    Geometry (in Angstrom), charge = 0, multiplicity = 1:

       Center              X                  Y                   Z               Mass
    ------------   -----------------  -----------------  -----------------  -----------------
           O          0.013603669656     0.006785910542     0.000000000000    15.994914619560
           H          0.013603669656    -1.493214089458     0.000000000000     1.007825032070
           H         -0.229503779044     1.385516764742     0.000000000000     1.007825032070

  Basis Set: 6-31G
    Blend: 6-31G
  Basis Set: (6-31G AUX)
    Blend: CC-PVDZ-JKFIT
  Basis Set: (6-31G AUX)
    Blend: CC-PVDZ-JKFIT
	 Reference Energy          =     -75.7164076397275352 [Eh]
	 Singles Energy            =      -0.0000000000000000 [Eh]
	 Same-Spin Energy          =      -0.0354733407520116 [Eh]
	 Opposite-Spin Energy      =      -0.1181267420131653 [Eh]
	 Correlation Energy        =      -0.1536000827651769 [Eh]
	 Total Energy              =     -75.8700077224927156 [Eh]

	 ================> DF-SCS-MP2 Energies <==================
	-----------------------------------------------------------
	 SCS Same-Spin Scale       =       0.3333333333333333 [-]
	 SCS Opposite-Spin Scale   =       1.2000000000000000 [-]
	 SCS Same-Spin Energy      =      -0.0118244469173372 [Eh]
	 SCS Opposite-Spin Energy  =      -0.1417520904157983 [Eh]
	 SCS Correlation Energy    =      -0.1535765373331355 [Eh]
	 SCS Total Energy          =     -75.8699841770606724 [Eh]
	-----------------------------------------------------------

  -Total Gradient:
     Atom            X                  Y                   Z
    ------   -----------------  -----------------  -----------------
       1       -0.056055354302    -0.009832134213     0.000000000000
       2        0.036680009331    -0.106604563111     0.000000000000
       3        0.019375344971     0.116436697324    -0.000000000000

*** Psi4 exiting successfully. Buy a developer a beer!
