                               Psi4 1.2a1.dev429

  ==> Input File <==

--------------------------------------------------------------------------
# density-fitted hartree fock energies and gradients with 6-31g
molecule h2o {
0 1
O 0.0000000000 0.0000000000 0.0000000000
H 0.0000000000 0.0000000000 0.8000000000
H 0.0000000000 0.9192533317 -0.7713451316
}

set basis 6-31g

gradient('mp2')
--------------------------------------------------------------------------

    Molecular point group: cs
  Charge       = 0
  Multiplicity = 1
  Basis Set: 6-31G
    Blend: 6-31G
  Basis Set: (6-31G AUX)
    Blend: CC-PVDZ-JKFIT

    Orbital Energies (a.u.)
    -----------------------

    Doubly Occupied:

       1Ap   -20.539794     2Ap    -1.345782     3Ap    -0.720116
       4Ap    -0.502705     1App   -0.485511

  @DF-RHF Final Energy:   -75.89936640647242

   => Energetics <=

    Nuclear Repulsion Energy =              9.1102999788296266
    One-Electron Energy =                -122.8315191890404350
    Two-Electron Energy =                  37.8218528037383876
    Total Energy =                        -75.8993664064724101
  Basis Set: (6-31G AUX)
    Blend: CC-PVDZ-RI
    Molecular point group: cs

    Geometry (in Angstrom), charge = 0, multiplicity = 1:

       Center              X                  Y                   Z               Mass
    ------------   -----------------  -----------------  -----------------  -----------------
           O          0.051439060061     0.001603452983     0.000000000000    15.994914619560
           H          0.051439060061    -0.798396547017     0.000000000000     1.007825032070
           H         -0.867814271639     0.772948584583     0.000000000000     1.007825032070

  Basis Set: 6-31G
    Blend: 6-31G
  Basis Set: (6-31G AUX)
    Blend: CC-PVDZ-JKFIT
  Basis Set: (6-31G AUX)
    Blend: CC-PVDZ-JKFIT
	 Reference Energy          =     -75.8993664064724243 [Eh]
	 Singles Energy            =      -0.0000000000000000 [Eh]
	 Same-Spin Energy          =      -0.0306517231307115 [Eh]
	 Opposite-Spin Energy      =      -0.0996073472962387 [Eh]
	 Correlation Energy        =      -0.1302590704269503 [Eh]
	 Total Energy              =     -76.0296254768993691 [Eh]

	 ================> DF-SCS-MP2 Energies <==================
	-----------------------------------------------------------
	 SCS Same-Spin Scale       =       0.3333333333333333 [-]
	 SCS Opposite-Spin Scale   =       1.2000000000000000 [-]
	 SCS Same-Spin Energy      =      -0.0102172410435705 [Eh]
	 SCS Opposite-Spin Energy  =      -0.1195288167554865 [Eh]
	 SCS Correlation Energy    =      -0.1297460577990570 [Eh]
	 SCS Total Energy          =     -76.0291124642714777 [Eh]
	-----------------------------------------------------------

  -Total Gradient:
     Atom            X                  Y                   Z
    ------   -----------------  -----------------  -----------------
       1        0.042375619554    -0.411974392255     0.000000000000
       2        0.035287280265     0.316097966505    -0.000000000000
       3       -0.077662899820     0.095876425750     0.000000000000

*** Psi4 exiting successfully. Buy a developer a beer!
