                               Psi4 1.2a1.dev429

  ==> Input File <==

--------------------------------------------------------------------------
# density-fitted hartree fock energies and gradients with 6-31g
molecule h2o {
0 1
O 0.0000000000 0.0000000000 0.0000000000
H 0.0000000000 0.0000000000 1.3000000000
H 0.0000000000 0.8000000000 0.0000000000
}

set basis 6-31g

gradient('mp2')
--------------------------------------------------------------------------

    Molecular point group: cs
  Charge       = 0
  Multiplicity = 1
  Basis Set: 6-31G
    Blend: 6-31G
  Basis Set: (6-31G AUX)
    Blend: CC-PVDZ-JKFIT

    Orbital Energies (a.u.)
    -----------------------

    Doubly Occupied:

       1Ap   -20.583620     2Ap    -1.380604     3Ap    -0.673585
       4Ap    -0.544820     1App   -0.510486

  @DF-RHF Final Energy:   -75.87893674404393

   => Energetics <=

    Nuclear Repulsion Energy =              8.8949227316124375
    One-Electron Energy =                -122.1614883777598379
    Two-Electron Energy =                  37.3876289021034722
    Total Energy =                        -75.8789367440439264
  Basis Set: (6-31G AUX)
    Blend: CC-PVDZ-RI
    Molecular point group: cs

    Geometry (in Angstrom), charge = 0, multiplicity = 1:

       Center              X                  Y                   Z               Mass
    ------------   -----------------  -----------------  -----------------  -----------------
           O          0.044765949309     0.072744667627     0.000000000000    15.994914619560
           H          0.044765949309    -1.227255332373     0.000000000000     1.007825032070
           H         -0.755234050691     0.072744667627     0.000000000000     1.007825032070

  Basis Set: 6-31G
    Blend: 6-31G
  Basis Set: (6-31G AUX)
    Blend: CC-PVDZ-JKFIT
  Basis Set: (6-31G AUX)
    Blend: CC-PVDZ-JKFIT
	 Reference Energy          =     -75.8789367440439264 [Eh]
	 Singles Energy            =      -0.0000000000000000 [Eh]
	 Same-Spin Energy          =      -0.0309802568880869 [Eh]
	 Opposite-Spin Energy      =      -0.1058791557667232 [Eh]
	 Correlation Energy        =      -0.1368594126548102 [Eh]
	 Total Energy              =     -76.0157961566987410 [Eh]

	 ================> DF-SCS-MP2 Energies <==================
	-----------------------------------------------------------
	 SCS Same-Spin Scale       =       0.3333333333333333 [-]
	 SCS Opposite-Spin Scale   =       1.2000000000000000 [-]
	 SCS Same-Spin Energy      =      -0.0103267522960290 [Eh]
	 SCS Opposite-Spin Energy  =      -0.1270549869200679 [Eh]
	 SCS Correlation Energy    =      -0.1373817392160969 [Eh]
	 SCS Total Energy          =     -76.0163184832600223 [Eh]
	-----------------------------------------------------------

  -Total Gradient:
     Atom            X                  Y                   Z
    ------   -----------------  -----------------  -----------------
       1       -0.320540051675     0.128055414957    -0.000000000000
       2       -0.017096156666    -0.100274164084     0.000000000000
       3        0.337636208341    -0.027781250873     0.000000000000

*** Psi4 exiting successfully. Buy a developer a beer!
