                               Psi4 1.2a1.dev429

  ==> Input File <==

--------------------------------------------------------------------------
# density-fitted hartree fock energies and gradients with 6-31g
molecule h2o {
0 1
O 0.0000000000 0.0000000000 0.0000000000
H 0.0000000000 0.0000000000 1.4000000000
H 0.0000000000 0.2083778132 -1.1817693036
}

set basis 6-31g

gradient('mp2')
--------------------------------------------------------------------------

    Molecular point group: cs
  Charge       = 0
  Multiplicity = 1
  Basis Set: 6-31G
    Blend: 6-31G
  Basis Set: (6-31G AUX)
    Blend: CC-PVDZ-JKFIT

    Orbital Energies (a.u.)
    -----------------------

    Doubly Occupied:

       1Ap   -20.513090     2Ap    -1.166865     3Ap    -0.560875
       1App   -0.420911     4Ap    -0.417603

  @DF-RHF Final Energy:   -75.79146541650330

   => Energetics <=

    Nuclear Repulsion Energy =              6.7560203401327907
    One-Electron Energy =                -118.9362834856086266
    Two-Electron Energy =                  36.3887977289725342
    Total Energy =                        -75.7914654165032999
  Basis Set: (6-31G AUX)
    Blend: CC-PVDZ-RI
    Molecular point group: cs

    Geometry (in Angstrom), charge = 0, multiplicity = 1:

       Center              X                  Y                   Z               Mass
    ------------   -----------------  -----------------  -----------------  -----------------
           O          0.011660288279     0.012211630366     0.000000000000    15.994914619560
           H          0.011660288279    -1.387788369634     0.000000000000     1.007825032070
           H         -0.196717524921     1.193980933966     0.000000000000     1.007825032070

  Basis Set: 6-31G
    Blend: 6-31G
  Basis Set: (6-31G AUX)
    Blend: CC-PVDZ-JKFIT
  Basis Set: (6-31G AUX)
    Blend: CC-PVDZ-JKFIT
	 Reference Energy          =     -75.7914654165032999 [Eh]
	 Singles Energy            =      -0.0000000000000000 [Eh]
	 Same-Spin Energy          =      -0.0345269077769848 [Eh]
	 Opposite-Spin Energy      =      -0.1102661492998450 [Eh]
	 Correlation Energy        =      -0.1447930570768298 [Eh]
	 Total Energy              =     -75.9362584735801249 [Eh]

	 ================> DF-SCS-MP2 Energies <==================
	-----------------------------------------------------------
	 SCS Same-Spin Scale       =       0.3333333333333333 [-]
	 SCS Opposite-Spin Scale   =       1.2000000000000000 [-]
	 SCS Same-Spin Energy      =      -0.0115089692589949 [Eh]
	 SCS Opposite-Spin Energy  =      -0.1323193791598140 [Eh]
	 SCS Correlation Energy    =      -0.1438283484188089 [Eh]
	 SCS Total Energy          =     -75.9352937649221076 [Eh]
	-----------------------------------------------------------

  -Total Gradient:
     Atom            X                  Y                   Z
    ------   -----------------  -----------------  -----------------
       1       -0.035607277892     0.009163178540     0.000000000000
       2        0.025901804770    -0.128143685910     0.000000000000
       3        0.009705473122     0.118980507370    -0.000000000000

*** Psi4 exiting successfully. Buy a developer a beer!
