                               Psi4 1.2.1 release

  ==> Input File <==

--------------------------------------------------------------------------
# density fitted hartree fock
molecule h2o {
0 1
H 0.0000000000 0.0000000000 1.0250000000
H 0.0000000000 0.8427281322 -0.1109472634
O 0.0000000000 0.0000000000 0.0000000000
}

set basis 6-31g
energy('hf')

--------------------------------------------------------------------------

    Molecular point group: cs

    Geometry (in Angstrom), charge = 0, multiplicity = 1:

       Center              X                  Y                   Z               Mass
    ------------   -----------------  -----------------  -----------------  -----------------
         H            0.047156906059    -0.973851951910     0.000000000000     1.007825032070
         H           -0.795571226141     0.162095311490     0.000000000000     1.007825032070
         O            0.047156906059     0.051148048090     0.000000000000    15.994914619560

  Charge       = 0
  Multiplicity = 1
  Basis Set: 6-31G
    Blend: 6-31G
  Basis Set: (6-31G AUX)
    Blend: CC-PVDZ-JKFIT

    Orbital Energies [Eh]
    ---------------------

    Doubly Occupied:

       1Ap   -20.560827     2Ap    -1.384452     3Ap    -0.709775
       4Ap    -0.575003     1App   -0.506510

  @DF-RHF Final Energy:   -75.96065095236833

   => Energetics <=

    Nuclear Repulsion Energy =              9.4847867275136792
    One-Electron Energy =                -123.4177410540400217
    Two-Electron Energy =                  37.9723033741580238
    Total Energy =                        -75.9606509523683258

  Dipole Moment: [D]
     X:    -2.0228      Y:    -1.8345      Z:     0.0000     Total:     2.7307

*** Psi4 exiting successfully. Buy a developer a beer!
