                               Psi4 1.2.1 release

  ==> Input File <==

--------------------------------------------------------------------------
# density fitted hartree fock
molecule h2o {
0 1
H 0.0000000000 0.0000000000 1.1125000000
H 0.0000000000 0.9469765208 -0.3922505182
O 0.0000000000 0.0000000000 0.0000000000
}

set basis 6-31g
energy('hf')

--------------------------------------------------------------------------

    Molecular point group: cs

    Geometry (in Angstrom), charge = 0, multiplicity = 1:

       Center              X                  Y                   Z               Mass
    ------------   -----------------  -----------------  -----------------  -----------------
         H            0.052990378659    -1.072196685260     0.000000000000     1.007825032070
         H           -0.893986142141     0.432553832940     0.000000000000     1.007825032070
         O            0.052990378659     0.040303314740     0.000000000000    15.994914619560

  Charge       = 0
  Multiplicity = 1
  Basis Set: 6-31G
    Blend: 6-31G
  Basis Set: (6-31G AUX)
    Blend: CC-PVDZ-JKFIT

    Orbital Energies [Eh]
    ---------------------

    Doubly Occupied:

       1Ap   -20.574609     2Ap    -1.298707     3Ap    -0.662980
       4Ap    -0.528650     1App   -0.492070

  @DF-RHF Final Energy:   -75.96060911933442

   => Energetics <=

    Nuclear Repulsion Energy =              8.2331193587797991
    One-Electron Energy =                -121.2734205175187867
    Two-Electron Energy =                  37.0796920394045628
    Total Energy =                        -75.9606091193344213

  Dipole Moment: [D]
     X:    -2.0651      Y:    -1.4300      Z:     0.0000     Total:     2.5119

*** Psi4 exiting successfully. Buy a developer a beer!
