                               Psi4 1.3.1 release

  ==> Input File <==

--------------------------------------------------------------------------
# density fitted hartree fock
molecule h2o {
0 1
H 0.0000000000 0.0000000000 1.0000000000
H 0.0000000000 0.9393892849 -0.1415901529
O 0.0000000000 0.0000000000 0.0000000000
}

set basis 6-31g
energy('hf')

--------------------------------------------------------------------------

    Molecular point group: cs

    Geometry (in Angstrom), charge = 0, multiplicity = 1:

       Center              X                  Y                   Z               Mass
    ------------   -----------------  -----------------  -----------------  -----------------
         H            0.052565816394    -0.951965585366     0.000000000000     1.007825032230
         H           -0.886823468506     0.189624567534     0.000000000000     1.007825032230
         O            0.052565816394     0.048034414634     0.000000000000    15.994914619570

  Charge       = 0
  Multiplicity = 1
  Basis Set: 6-31G
    Blend: 6-31G
  Basis Set: (6-31G AUX)
    Blend: CC-PVDZ-JKFIT

    Orbital Energies [Eh]
    ---------------------

    Doubly Occupied:

       1Ap   -20.568245     2Ap    -1.354382     3Ap    -0.690075
       4Ap    -0.569348     1App   -0.503462

  @DF-RHF Final Energy:   -75.97897605615080

   => Energetics <=

    Nuclear Repulsion Energy =              9.0475848329350050
    One-Electron Energy =                -122.6820919849768643
    Two-Electron Energy =                  37.6555310958910709
    Total Energy =                        -75.9789760561507990

  Dipole Moment: [D]
     X:    -2.0645      Y:    -1.7909      Z:     0.0000     Total:     2.7330

*** Psi4 exiting successfully. Buy a developer a beer!
