                               Psi4 1.2a1.dev429

  ==> Input File <==

--------------------------------------------------------------------------
# density-fitted hartree fock energies and gradients with 6-31g
molecule h20 {
0 1
O 0.0000000000 0.0000000000 0.0000000000
H 0.0000000000 0.0000000000 0.8000000000
H 0.0000000000 0.8000000000 0.0000000000
}

set basis 6-31g

gradient('hf')
--------------------------------------------------------------------------

    Molecular point group: c2v
  Charge       = 0
  Multiplicity = 1
  Basis Set: 6-31G
    Blend: 6-31G
  Basis Set: (6-31G AUX)
    Blend: CC-PVDZ-JKFIT

    Orbital Energies (a.u.)
    -----------------------

    Doubly Occupied:

       1A1   -20.536867     2A1    -1.485027     1B2    -0.768196
       3A1    -0.612755     1B1    -0.518193

  @DF-RHF Final Energy:   -75.89294646596167

   => Energetics <=

    Nuclear Repulsion Energy =             11.0512751626041954
    One-Electron Energy =                -126.0463687627460700
    Two-Electron Energy =                  39.1021471341802069
    Total Energy =                        -75.8929464659616713
    Molecular point group: c2v

    Geometry (in Angstrom), charge = 0, multiplicity = 1:

       Center              X                  Y                   Z               Mass
    ------------   -----------------  -----------------  -----------------  -----------------
           O          0.000000000000     0.000000000000    -0.063308612645    15.994914619560
           H          0.000000000000    -0.565685424949     0.502376812304     1.007825032070
           H         -0.000000000000     0.565685424949     0.502376812304     1.007825032070

  Basis Set: 6-31G
    Blend: 6-31G
  Basis Set: (6-31G AUX)
    Blend: CC-PVDZ-JKFIT

  -Total Gradient:
     Atom            X                  Y                   Z
    ------   -----------------  -----------------  -----------------
       1       -0.000000000000     0.000000000000     0.333711155734
       2       -0.000000000000     0.269091630882    -0.166855577867
       3        0.000000000000    -0.269091630882    -0.166855577867

*** Psi4 exiting successfully. Buy a developer a beer!
