                               Psi4 1.2a1.dev429

  ==> Input File <==

--------------------------------------------------------------------------
# density-fitted hartree fock energies and gradients with 6-31g
molecule o2 {
0 3
O 0.0000000000 0.0000000000 0.0000000000
O 0.0000000000 0.0000000000 1.4151515152
}

set basis 6-31g
set reference rohf

gradient('scf')
--------------------------------------------------------------------------

    Molecular point group: d2h
  Charge       = 0
  Multiplicity = 3
  Basis Set: 6-31G
    Blend: 6-31G
  Basis Set: (6-31G AUX)
    Blend: CC-PVDZ-JKFIT

    Orbital Energies (a.u.)
    -----------------------

    Doubly Occupied:

       1Ag   -20.779997     1B1u  -20.779549     2Ag    -1.527806
       2B1u   -1.168823     3Ag    -0.664499     1B3u   -0.646325
       1B2u   -0.646325

    Singly Occupied:

       1B2g   -0.295131     1B3g   -0.295131

  @DF-ROHF Final Energy:  -149.47397216299410

   => Energetics <=

    Nuclear Repulsion Energy =             23.9319542720297314
    One-Electron Energy =                -253.1693832855551705
    Two-Electron Energy =                  79.7634568505313553
    Total Energy =                       -149.4739721629940732
    Molecular point group: d2h

    Geometry (in Angstrom), charge = 0, multiplicity = 3:

       Center              X                  Y                   Z               Mass
    ------------   -----------------  -----------------  -----------------  -----------------
           O          0.000000000000     0.000000000000    -0.707575757600    15.994914619560
           O          0.000000000000     0.000000000000     0.707575757600    15.994914619560

  Basis Set: 6-31G
    Blend: 6-31G
  Basis Set: (6-31G AUX)
    Blend: CC-PVDZ-JKFIT

  -Total Gradient:
     Atom            X                  Y                   Z
    ------   -----------------  -----------------  -----------------
       1       -0.000000000000     0.000000000000    -0.199388348214
       2        0.000000000000     0.000000000000     0.199388348214

*** Psi4 exiting successfully. Buy a developer a beer!
