                               Psi4 1.2a1.dev429

  ==> Input File <==

--------------------------------------------------------------------------
# density-fitted hartree fock energies and gradients with 6-31g
molecule o2 {
0 3
O 0.0000000000 0.0000000000 0.0000000000
O 0.0000000000 0.0000000000 1.2808080808
}

set basis 6-31g
set reference rohf

gradient('scf')
--------------------------------------------------------------------------

    Molecular point group: d2h
  Charge       = 0
  Multiplicity = 3
  Basis Set: 6-31G
    Blend: 6-31G
  Basis Set: (6-31G AUX)
    Blend: CC-PVDZ-JKFIT

    Orbital Energies (a.u.)
    -----------------------

    Doubly Occupied:

       1Ag   -20.761084     1B1u  -20.760446     2Ag    -1.623980
       2B1u   -1.127381     3Ag    -0.702564     1B3u   -0.688008
       1B2u   -0.688008

    Singly Occupied:

       1B2g   -0.256353     1B3g   -0.256353

  @DF-ROHF Final Energy:  -149.51648416582631

   => Energetics <=

    Nuclear Repulsion Energy =             26.4421671423296054
    One-Electron Energy =                -258.0620129792020521
    Two-Electron Energy =                  82.1033616710461303
    Total Energy =                       -149.5164841658263413
    Molecular point group: d2h

    Geometry (in Angstrom), charge = 0, multiplicity = 3:

       Center              X                  Y                   Z               Mass
    ------------   -----------------  -----------------  -----------------  -----------------
           O          0.000000000000     0.000000000000    -0.640404040400    15.994914619560
           O          0.000000000000     0.000000000000     0.640404040400    15.994914619560

  Basis Set: 6-31G
    Blend: 6-31G
  Basis Set: (6-31G AUX)
    Blend: CC-PVDZ-JKFIT

  -Total Gradient:
     Atom            X                  Y                   Z
    ------   -----------------  -----------------  -----------------
       1        0.000000000000     0.000000000000    -0.122354530802
       2       -0.000000000000     0.000000000000     0.122354530802

*** Psi4 exiting successfully. Buy a developer a beer!
