                               Psi4 1.2a1.dev429

  ==> Input File <==

--------------------------------------------------------------------------
# density-fitted hartree fock energies and gradients with 6-31g
molecule h20 {
0 1
O 0.0000000000 0.0000000000 0.0000000000
H 0.0000000000 0.0000000000 1.3000000000
H 0.0000000000 1.2802500789 -0.2257426310
}

set basis 6-31g

gradient('hf')
--------------------------------------------------------------------------

    Molecular point group: c2v
  Charge       = 0
  Multiplicity = 1
  Basis Set: 6-31G
    Blend: 6-31G
  Basis Set: (6-31G AUX)
    Blend: CC-PVDZ-JKFIT

    Orbital Energies (a.u.)
    -----------------------

    Doubly Occupied:

       1A1   -20.625532     2A1    -1.245053     1B2    -0.558555
       3A1    -0.515404     1B1    -0.499422

  @DF-RHF Final Energy:   -75.86364917356744

   => Energetics <=

    Nuclear Repulsion Energy =              6.7786394078389032
    One-Electron Energy =                -118.3966440007685605
    Two-Electron Energy =                  35.7543554193622057
    Total Energy =                        -75.8636491735674383
    Molecular point group: c2v

    Geometry (in Angstrom), charge = 0, multiplicity = 1:

       Center              X                  Y                   Z               Mass
    ------------   -----------------  -----------------  -----------------  -----------------
           O         -0.000000000000     0.000000000000    -0.093518742041    15.994914619560
           H          0.000000000000    -0.995857776062     0.742105150535     1.007825032070
           H         -0.000000000000     0.995857776062     0.742105150535     1.007825032070

  Basis Set: 6-31G
    Blend: 6-31G
  Basis Set: (6-31G AUX)
    Blend: CC-PVDZ-JKFIT

  -Total Gradient:
     Atom            X                  Y                   Z
    ------   -----------------  -----------------  -----------------
       1       -0.000000000000     0.000000000000    -0.163065779993
       2        0.000000000000    -0.098726668671     0.081532889997
       3       -0.000000000000     0.098726668671     0.081532889997

*** Psi4 exiting successfully. Buy a developer a beer!
