                               Psi4 1.2a1.dev429

  ==> Input File <==

--------------------------------------------------------------------------
# density-fitted hartree fock energies and gradients with 6-31g
molecule h2o {
0 1
O 0.0000000000 0.0000000000 0.0000000000
H 0.0000000000 0.0000000000 0.9000000000
H 0.0000000000 0.1389185421 -0.7878462024
}

set basis 6-31g

gradient('mp2')
--------------------------------------------------------------------------

    Molecular point group: cs
  Charge       = 0
  Multiplicity = 1
  Basis Set: 6-31G
    Blend: 6-31G
  Basis Set: (6-31G AUX)
    Blend: CC-PVDZ-JKFIT

    Orbital Energies (a.u.)
    -----------------------

    Doubly Occupied:

       1Ap   -20.500265     2Ap    -1.360443     3Ap    -0.852533
       4Ap    -0.488377     1App   -0.487196

  @DF-RHF Final Energy:   -75.91906155727888

   => Energetics <=

    Nuclear Repulsion Energy =             10.3080351105215478
    One-Electron Energy =                -125.0765654816356829
    Two-Electron Energy =                  38.8494688138352586
    Total Energy =                        -75.9190615572788801
  Basis Set: (6-31G AUX)
    Blend: CC-PVDZ-RI
    Molecular point group: cs

    Geometry (in Angstrom), charge = 0, multiplicity = 1:

       Center              X                  Y                   Z               Mass
    ------------   -----------------  -----------------  -----------------  -----------------
           O          0.007773525517     0.006275839023     0.000000000000    15.994914619560
           H          0.007773525517    -0.893724160977     0.000000000000     1.007825032070
           H         -0.131145016583     0.794122041423     0.000000000000     1.007825032070

  Basis Set: 6-31G
    Blend: 6-31G
  Basis Set: (6-31G AUX)
    Blend: CC-PVDZ-JKFIT
  Basis Set: (6-31G AUX)
    Blend: CC-PVDZ-JKFIT
	 Reference Energy          =     -75.9190615572788801 [Eh]
	 Singles Energy            =      -0.0000000000000000 [Eh]
	 Same-Spin Energy          =      -0.0283236595440662 [Eh]
	 Opposite-Spin Energy      =      -0.0894620769713800 [Eh]
	 Correlation Energy        =      -0.1177857365154462 [Eh]
	 Total Energy              =     -76.0368472937943238 [Eh]

	 ================> DF-SCS-MP2 Energies <==================
	-----------------------------------------------------------
	 SCS Same-Spin Scale       =       0.3333333333333333 [-]
	 SCS Opposite-Spin Scale   =       1.2000000000000000 [-]
	 SCS Same-Spin Energy      =      -0.0094412198480221 [Eh]
	 SCS Opposite-Spin Energy  =      -0.1073544923656560 [Eh]
	 SCS Correlation Energy    =      -0.1167957122136781 [Eh]
	 SCS Total Energy          =     -76.0358572694925527 [Eh]
	-----------------------------------------------------------

  -Total Gradient:
     Atom            X                  Y                   Z
    ------   -----------------  -----------------  -----------------
       1       -0.074857385720     0.226476270982    -0.000000000000
       2        0.012207702888     0.049738695732     0.000000000000
       3        0.062649682832    -0.276214966714    -0.000000000000

*** Psi4 exiting successfully. Buy a developer a beer!
