                               Psi4 1.2a1.dev429

  ==> Input File <==

--------------------------------------------------------------------------
# density-fitted hartree fock energies and gradients with 6-31g
molecule h2o {
0 1
O 0.0000000000 0.0000000000 0.0000000000
H 0.0000000000 0.0000000000 1.4000000000
H 0.0000000000 0.2257426310 -1.2802500789
}

set basis 6-31g

gradient('mp2')
--------------------------------------------------------------------------

    Molecular point group: cs
  Charge       = 0
  Multiplicity = 1
  Basis Set: 6-31G
    Blend: 6-31G
  Basis Set: (6-31G AUX)
    Blend: CC-PVDZ-JKFIT

    Orbital Energies (a.u.)
    -----------------------

    Doubly Occupied:

       1Ap   -20.516885     2Ap    -1.154455     3Ap    -0.538344
       1App   -0.418635     4Ap    -0.414354

  @DF-RHF Final Energy:   -75.76636111526359

   => Energetics <=

    Nuclear Repulsion Energy =              6.4770840749866272
    One-Electron Energy =                -118.4015415614670417
    Two-Electron Energy =                  36.1580963712168213
    Total Energy =                        -75.7663611152636065
  Basis Set: (6-31G AUX)
    Blend: CC-PVDZ-RI
    Molecular point group: cs

    Geometry (in Angstrom), charge = 0, multiplicity = 1:

       Center              X                  Y                   Z               Mass
    ------------   -----------------  -----------------  -----------------  -----------------
           O          0.012631978970     0.006700898622     0.000000000000    15.994914619560
           H          0.012631978970    -1.393299101378     0.000000000000     1.007825032070
           H         -0.213110652030     1.286950977522     0.000000000000     1.007825032070

  Basis Set: 6-31G
    Blend: 6-31G
  Basis Set: (6-31G AUX)
    Blend: CC-PVDZ-JKFIT
  Basis Set: (6-31G AUX)
    Blend: CC-PVDZ-JKFIT
	 Reference Energy          =     -75.7663611152635923 [Eh]
	 Singles Energy            =      -0.0000000000000000 [Eh]
	 Same-Spin Energy          =      -0.0348684532253222 [Eh]
	 Opposite-Spin Energy      =      -0.1124912728216864 [Eh]
	 Correlation Energy        =      -0.1473597260470086 [Eh]
	 Total Energy              =     -75.9137208413106066 [Eh]

	 ================> DF-SCS-MP2 Energies <==================
	-----------------------------------------------------------
	 SCS Same-Spin Scale       =       0.3333333333333333 [-]
	 SCS Opposite-Spin Scale   =       1.2000000000000000 [-]
	 SCS Same-Spin Energy      =      -0.0116228177417741 [Eh]
	 SCS Opposite-Spin Energy  =      -0.1349895273860237 [Eh]
	 SCS Correlation Energy    =      -0.1466123451277977 [Eh]
	 SCS Total Energy          =     -75.9129734603913846 [Eh]
	-----------------------------------------------------------

  -Total Gradient:
     Atom            X                  Y                   Z
    ------   -----------------  -----------------  -----------------
       1       -0.039785147127    -0.002251728855     0.000000000000
       2        0.029497339313    -0.122338424847     0.000000000000
       3        0.010287807814     0.124590153702    -0.000000000000

*** Psi4 exiting successfully. Buy a developer a beer!
