                               Psi4 1.2a1.dev429

  ==> Input File <==

--------------------------------------------------------------------------
# density-fitted hartree fock energies and gradients with 6-31g
molecule h2o {
0 1
O 0.0000000000 0.0000000000 0.0000000000
H 0.0000000000 0.0000000000 0.9000000000
H 0.0000000000 0.3078181290 -0.8457233587
}

set basis 6-31g

gradient('mp2')
--------------------------------------------------------------------------

    Molecular point group: c2v
  Charge       = 0
  Multiplicity = 1
  Basis Set: 6-31G
    Blend: 6-31G
  Basis Set: (6-31G AUX)
    Blend: CC-PVDZ-JKFIT

    Orbital Energies (a.u.)
    -----------------------

    Doubly Occupied:

       1A1   -20.507972     2A1    -1.331787     1B2    -0.808364
       3A1    -0.484585     1B1    -0.480188

  @DF-RHF Final Energy:   -75.95023010846887

   => Energetics <=

    Nuclear Repulsion Energy =              9.7061173860722310
    One-Electron Energy =                -124.0869022963282617
    Two-Electron Energy =                  38.4305548017871530
    Total Energy =                        -75.9502301084688725
  Basis Set: (6-31G AUX)
    Blend: CC-PVDZ-RI
    Molecular point group: c2v

    Geometry (in Angstrom), charge = 0, multiplicity = 1:

       Center              X                  Y                   Z               Mass
    ------------   -----------------  -----------------  -----------------  -----------------
           O         -0.000000000000     0.000000000000    -0.017490432418    15.994914619560
           H          0.000000000000    -0.886326977708     0.138792927486     1.007825032070
           H         -0.000000000000     0.886326977708     0.138792927486     1.007825032070

  Basis Set: 6-31G
    Blend: 6-31G
  Basis Set: (6-31G AUX)
    Blend: CC-PVDZ-JKFIT
  Basis Set: (6-31G AUX)
    Blend: CC-PVDZ-JKFIT
	 Reference Energy          =     -75.9502301084688725 [Eh]
	 Singles Energy            =      -0.0000000000000000 [Eh]
	 Same-Spin Energy          =      -0.0293992314101552 [Eh]
	 Opposite-Spin Energy      =      -0.0924378107434688 [Eh]
	 Correlation Energy        =      -0.1218370421536240 [Eh]
	 Total Energy              =     -76.0720671506225017 [Eh]

	 ================> DF-SCS-MP2 Energies <==================
	-----------------------------------------------------------
	 SCS Same-Spin Scale       =       0.3333333333333333 [-]
	 SCS Opposite-Spin Scale   =       1.2000000000000000 [-]
	 SCS Same-Spin Energy      =      -0.0097997438033851 [Eh]
	 SCS Opposite-Spin Energy  =      -0.1109253728921626 [Eh]
	 SCS Correlation Energy    =      -0.1207251166955477 [Eh]
	 SCS Total Energy          =     -76.0709552251644254 [Eh]
	-----------------------------------------------------------

  -Total Gradient:
     Atom            X                  Y                   Z
    ------   -----------------  -----------------  -----------------
       1       -0.000000000000    -0.000000000005     0.067919829888
       2        0.000000000000     0.052676371558    -0.033959914945
       3        0.000000000000    -0.052676371552    -0.033959914944

*** Psi4 exiting successfully. Buy a developer a beer!
