                               Psi4 1.2a1.dev429

  ==> Input File <==

--------------------------------------------------------------------------
# density-fitted hartree fock energies and gradients with 6-31g
molecule h2o {
0 1
O 0.0000000000 0.0000000000 0.0000000000
H 0.0000000000 0.0000000000 0.9000000000
H 0.0000000000 1.0724622204 -0.8999026536
}

set basis 6-31g

gradient('mp2')
--------------------------------------------------------------------------

    Molecular point group: cs
  Charge       = 0
  Multiplicity = 1
  Basis Set: 6-31G
    Blend: 6-31G
  Basis Set: (6-31G AUX)
    Blend: CC-PVDZ-JKFIT

    Orbital Energies (a.u.)
    -----------------------

    Doubly Occupied:

       1Ap   -20.559356     2Ap    -1.291887     3Ap    -0.652380
       1App   -0.478229     4Ap    -0.476105

  @DF-RHF Final Energy:   -75.87674103412364

   => Energetics <=

    Nuclear Repulsion Energy =              7.9802347153525819
    One-Electron Energy =                -120.7980363676700080
    Two-Electron Energy =                  36.9410606181937879
    Total Energy =                        -75.8767410341236399
  Basis Set: (6-31G AUX)
    Blend: CC-PVDZ-RI
    Molecular point group: cs

    Geometry (in Angstrom), charge = 0, multiplicity = 1:

       Center              X                  Y                   Z               Mass
    ------------   -----------------  -----------------  -----------------  -----------------
           O          0.060012236743     0.000005447255     0.000000000000    15.994914619560
           H          0.060012236743    -0.899994552745     0.000000000000     1.007825032070
           H         -1.012449983657     0.899908100855     0.000000000000     1.007825032070

  Basis Set: 6-31G
    Blend: 6-31G
  Basis Set: (6-31G AUX)
    Blend: CC-PVDZ-JKFIT
  Basis Set: (6-31G AUX)
    Blend: CC-PVDZ-JKFIT
	 Reference Energy          =     -75.8767410341236399 [Eh]
	 Singles Energy            =      -0.0000000000000000 [Eh]
	 Same-Spin Energy          =      -0.0329133561345639 [Eh]
	 Opposite-Spin Energy      =      -0.1103223087416751 [Eh]
	 Correlation Energy        =      -0.1432356648762390 [Eh]
	 Total Energy              =     -76.0199766989998835 [Eh]

	 ================> DF-SCS-MP2 Energies <==================
	-----------------------------------------------------------
	 SCS Same-Spin Scale       =       0.3333333333333333 [-]
	 SCS Opposite-Spin Scale   =       1.2000000000000000 [-]
	 SCS Same-Spin Energy      =      -0.0109711187115213 [Eh]
	 SCS Opposite-Spin Energy  =      -0.1323867704900101 [Eh]
	 SCS Correlation Energy    =      -0.1433578892015314 [Eh]
	 SCS Total Energy          =     -76.0200989233251647 [Eh]
	-----------------------------------------------------------

  -Total Gradient:
     Atom            X                  Y                   Z
    ------   -----------------  -----------------  -----------------
       1        0.034305646776    -0.191959468386     0.000000000000
       2        0.039516976357     0.096852665204     0.000000000000
       3       -0.073822623133     0.095106803182    -0.000000000000

*** Psi4 exiting successfully. Buy a developer a beer!
