                               Psi4 1.2a1.dev429

  ==> Input File <==

--------------------------------------------------------------------------
# density-fitted hartree fock energies and gradients with 6-31g
molecule o2 {
0 3
O 0.0000000000 0.0000000000 0.0000000000
O 0.0000000000 0.0000000000 0.9272727273
}

set basis 6-31g
set reference rohf

gradient('scf')
--------------------------------------------------------------------------

    Molecular point group: d2h
  Charge       = 0
  Multiplicity = 3
  Basis Set: 6-31G
    Blend: 6-31G
  Basis Set: (6-31G AUX)
    Blend: CC-PVDZ-JKFIT

    Orbital Energies (a.u.)
    -----------------------

    Doubly Occupied:

       1Ag   -20.706933     1B1u  -20.702448     2Ag    -2.041057
       2B1u   -0.989762     1B3u   -0.879967     1B2u   -0.879967
       3Ag    -0.803187

    Singly Occupied:

       1B2g   -0.072900     1B3g   -0.072900

  @DF-ROHF Final Energy:  -149.28592808914161

   => Energetics <=

    Nuclear Repulsion Energy =             36.5236034153336320
    One-Electron Energy =                -276.8048024462746071
    Two-Electron Energy =                  90.9952709417993475
    Total Energy =                       -149.2859280891416347
    Molecular point group: d2h

    Geometry (in Angstrom), charge = 0, multiplicity = 3:

       Center              X                  Y                   Z               Mass
    ------------   -----------------  -----------------  -----------------  -----------------
           O          0.000000000000     0.000000000000    -0.463636363650    15.994914619560
           O          0.000000000000     0.000000000000     0.463636363650    15.994914619560

  Basis Set: 6-31G
    Blend: 6-31G
  Basis Set: (6-31G AUX)
    Blend: CC-PVDZ-JKFIT

  -Total Gradient:
     Atom            X                  Y                   Z
    ------   -----------------  -----------------  -----------------
       1       -0.000000000000     0.000000000000     1.359626370632
       2        0.000000000000     0.000000000000    -1.359626370632

*** Psi4 exiting successfully. Buy a developer a beer!
