                               Psi4 1.2a1.dev429

  ==> Input File <==

--------------------------------------------------------------------------
# density-fitted hartree fock energies and gradients with 6-31g
molecule h20 {
0 1
O 0.0000000000 0.0000000000 0.0000000000
H 0.0000000000 0.0000000000 1.2000000000
H 0.0000000000 0.0000000000 -1.2000000000
}

set basis 6-31g

gradient('hf')
--------------------------------------------------------------------------

    Molecular point group: d2h
  Charge       = 0
  Multiplicity = 1
  Basis Set: 6-31G
    Blend: 6-31G
  Basis Set: (6-31G AUX)
    Blend: CC-PVDZ-JKFIT

    Orbital Energies (a.u.)
    -----------------------

    Doubly Occupied:

       1Ag   -20.506632     2Ag    -1.186372     1B1u   -0.607781
       1B3u   -0.426184     1B2u   -0.426184

  @DF-RHF Final Energy:   -75.84317368793967

   => Energetics <=

    Nuclear Repulsion Energy =              7.2761866181125017
    One-Electron Energy =                -119.9324133722578125
    Two-Electron Energy =                  36.8130530662056401
    Total Energy =                        -75.8431736879396681
    Molecular point group: d2h

    Geometry (in Angstrom), charge = 0, multiplicity = 1:

       Center              X                  Y                   Z               Mass
    ------------   -----------------  -----------------  -----------------  -----------------
           O          0.000000000000     0.000000000000     0.000000000000    15.994914619560
           H          0.000000000000     0.000000000000     1.200000000000     1.007825032070
           H          0.000000000000     0.000000000000    -1.200000000000     1.007825032070

  Basis Set: 6-31G
    Blend: 6-31G
  Basis Set: (6-31G AUX)
    Blend: CC-PVDZ-JKFIT

  -Total Gradient:
     Atom            X                  Y                   Z
    ------   -----------------  -----------------  -----------------
       1       -0.000000000000     0.000000000000     0.000000000000
       2        0.000000000000     0.000000000000     0.142220609527
       3        0.000000000000    -0.000000000000    -0.142220609527

*** Psi4 exiting successfully. Buy a developer a beer!
