                               Psi4 1.2a1.dev429

  ==> Input File <==

--------------------------------------------------------------------------
# density-fitted hartree fock energies and gradients with 6-31g
molecule h20 {
0 1
O 0.0000000000 0.0000000000 0.0000000000
H 0.0000000000 0.0000000000 0.7000000000
H 0.0000000000 0.6894399988 -0.5785088487
}

set basis 6-31g

gradient('hf')
--------------------------------------------------------------------------

    Molecular point group: cs
  Charge       = 0
  Multiplicity = 1
  Basis Set: 6-31G
    Blend: 6-31G
  Basis Set: (6-31G AUX)
    Blend: CC-PVDZ-JKFIT

    Orbital Energies (a.u.)
    -----------------------

    Doubly Occupied:

       1Ap   -20.515905     2Ap    -1.439082     3Ap    -0.857295
       4Ap    -0.538368     1App   -0.506924

  @DF-RHF Final Energy:   -75.85466973032904

   => Energetics <=

    Nuclear Repulsion Energy =             11.1158451142069694
    One-Electron Energy =                -126.2258821741996258
    Two-Electron Energy =                  39.2553673296636276
    Total Energy =                        -75.8546697303290358
    Molecular point group: cs

    Geometry (in Angstrom), charge = 0, multiplicity = 1:

       Center              X                  Y                   Z               Mass
    ------------   -----------------  -----------------  -----------------  -----------------
           O          0.038579295047     0.006798333401     0.000000000000    15.994914619560
           H          0.038579295047    -0.693201666599     0.000000000000     1.007825032070
           H         -0.650860703753     0.585307182101     0.000000000000     1.007825032070

  Basis Set: 6-31G
    Blend: 6-31G
  Basis Set: (6-31G AUX)
    Blend: CC-PVDZ-JKFIT

  -Total Gradient:
     Atom            X                  Y                   Z
    ------   -----------------  -----------------  -----------------
       1       -0.062260460757    -0.705636583643     0.000000000000
       2        0.018416627841     0.723727216590     0.000000000000
       3        0.043843832916    -0.018090632947     0.000000000000

*** Psi4 exiting successfully. Buy a developer a beer!
