                               Psi4 1.2a1.dev429

  ==> Input File <==

--------------------------------------------------------------------------
# density-fitted hartree fock energies and gradients with 6-31g
molecule h2o {
0 1
O 0.0000000000 0.0000000000 0.0000000000
H 0.0000000000 0.0000000000 1.3000000000
H 0.0000000000 0.9192533317 -0.7713451316
}

set basis 6-31g

gradient('mp2')
--------------------------------------------------------------------------

    Molecular point group: cs
  Charge       = 0
  Multiplicity = 1
  Basis Set: 6-31G
    Blend: 6-31G
  Basis Set: (6-31G AUX)
    Blend: CC-PVDZ-JKFIT

    Orbital Energies (a.u.)
    -----------------------

    Doubly Occupied:

       1Ap   -20.583679     2Ap    -1.228974     3Ap    -0.593316
       1App   -0.475006     4Ap    -0.474591

  @DF-RHF Final Energy:   -75.86846894738237

   => Energetics <=

    Nuclear Repulsion Energy =              7.0178355491282751
    One-Electron Energy =                -119.0614743140576479
    Two-Electron Energy =                  36.1751698175470011
    Total Energy =                        -75.8684689473823681
  Basis Set: (6-31G AUX)
    Blend: CC-PVDZ-RI
    Molecular point group: cs

    Geometry (in Angstrom), charge = 0, multiplicity = 1:

       Center              X                  Y                   Z               Mass
    ------------   -----------------  -----------------  -----------------  -----------------
           O          0.051439060061     0.029582171301     0.000000000000    15.994914619560
           H          0.051439060061    -1.270417828699     0.000000000000     1.007825032070
           H         -0.867814271639     0.800927302901     0.000000000000     1.007825032070

  Basis Set: 6-31G
    Blend: 6-31G
  Basis Set: (6-31G AUX)
    Blend: CC-PVDZ-JKFIT
  Basis Set: (6-31G AUX)
    Blend: CC-PVDZ-JKFIT
	 Reference Energy          =     -75.8684689473823681 [Eh]
	 Singles Energy            =      -0.0000000000000000 [Eh]
	 Same-Spin Energy          =      -0.0351719813861234 [Eh]
	 Opposite-Spin Energy      =      -0.1176337820351267 [Eh]
	 Correlation Energy        =      -0.1528057634212501 [Eh]
	 Total Energy              =     -76.0212747108036240 [Eh]

	 ================> DF-SCS-MP2 Energies <==================
	-----------------------------------------------------------
	 SCS Same-Spin Scale       =       0.3333333333333333 [-]
	 SCS Opposite-Spin Scale   =       1.2000000000000000 [-]
	 SCS Same-Spin Energy      =      -0.0117239937953745 [Eh]
	 SCS Opposite-Spin Energy  =      -0.1411605384421520 [Eh]
	 SCS Correlation Energy    =      -0.1528845322375265 [Eh]
	 SCS Total Energy          =     -76.0213534796198900 [Eh]
	-----------------------------------------------------------

  -Total Gradient:
     Atom            X                  Y                   Z
    ------   -----------------  -----------------  -----------------
       1        0.024236786527     0.020038114712    -0.000000000000
       2        0.030615248708    -0.109360254395     0.000000000000
       3       -0.054852035235     0.089322139683    -0.000000000000

*** Psi4 exiting successfully. Buy a developer a beer!
