                               Psi4 1.2a1.dev429

  ==> Input File <==

--------------------------------------------------------------------------
# density-fitted hartree fock energies and gradients with 6-31g
molecule h2o {
0 1
O 0.0000000000 0.0000000000 0.0000000000
H 0.0000000000 0.0000000000 1.1000000000
H 0.0000000000 0.8999026536 -1.0724622204
}

set basis 6-31g

gradient('mp2')
--------------------------------------------------------------------------

    Molecular point group: cs
  Charge       = 0
  Multiplicity = 1
  Basis Set: 6-31G
    Blend: 6-31G
  Basis Set: (6-31G AUX)
    Blend: CC-PVDZ-JKFIT

    Orbital Energies (a.u.)
    -----------------------

    Doubly Occupied:

       1Ap   -20.565046     2Ap    -1.226221     3Ap    -0.600372
       1App   -0.464420     4Ap    -0.455113

  @DF-RHF Final Energy:   -75.85146275566763

   => Energetics <=

    Nuclear Repulsion Energy =              7.0974721843465414
    One-Electron Energy =                -119.2755250536161782
    Two-Electron Energy =                  36.3265901136020091
    Total Energy =                        -75.8514627556676260
  Basis Set: (6-31G AUX)
    Blend: CC-PVDZ-RI
    Molecular point group: cs

    Geometry (in Angstrom), charge = 0, multiplicity = 1:

       Center              X                  Y                   Z               Mass
    ------------   -----------------  -----------------  -----------------  -----------------
           O          0.050356245718     0.001540943557     0.000000000000    15.994914619560
           H          0.050356245718    -1.098459056443     0.000000000000     1.007825032070
           H         -0.849546407882     1.074003163957     0.000000000000     1.007825032070

  Basis Set: 6-31G
    Blend: 6-31G
  Basis Set: (6-31G AUX)
    Blend: CC-PVDZ-JKFIT
  Basis Set: (6-31G AUX)
    Blend: CC-PVDZ-JKFIT
	 Reference Energy          =     -75.8514627556676260 [Eh]
	 Singles Energy            =      -0.0000000000000000 [Eh]
	 Same-Spin Energy          =      -0.0348869302824980 [Eh]
	 Opposite-Spin Energy      =      -0.1164325892109837 [Eh]
	 Correlation Energy        =      -0.1513195194934817 [Eh]
	 Total Energy              =     -76.0027822751611097 [Eh]

	 ================> DF-SCS-MP2 Energies <==================
	-----------------------------------------------------------
	 SCS Same-Spin Scale       =       0.3333333333333333 [-]
	 SCS Opposite-Spin Scale   =       1.2000000000000000 [-]
	 SCS Same-Spin Energy      =      -0.0116289767608327 [Eh]
	 SCS Opposite-Spin Energy  =      -0.1397191070531804 [Eh]
	 SCS Correlation Energy    =      -0.1513480838140131 [Eh]
	 SCS Total Energy          =     -76.0028108394816400 [Eh]
	-----------------------------------------------------------

  -Total Gradient:
     Atom            X                  Y                   Z
    ------   -----------------  -----------------  -----------------
       1        0.003517497178    -0.031531899350    -0.000000000000
       2        0.042549022175    -0.075378026518     0.000000000000
       3       -0.046066519354     0.106909925869    -0.000000000000

*** Psi4 exiting successfully. Buy a developer a beer!
