                               Psi4 1.2a1.dev429

  ==> Input File <==

--------------------------------------------------------------------------
# density-fitted hartree fock energies and gradients with 6-31g
molecule h20 {
0 1
O 0.0000000000 0.0000000000 0.0000000000
H 0.0000000000 0.0000000000 0.9000000000
H 0.0000000000 0.9526279442 -0.5500000000
}

set basis 6-31g

gradient('hf')
--------------------------------------------------------------------------

    Molecular point group: cs
  Charge       = 0
  Multiplicity = 1
  Basis Set: 6-31G
    Blend: 6-31G
  Basis Set: (6-31G AUX)
    Blend: CC-PVDZ-JKFIT

    Orbital Energies (a.u.)
    -----------------------

    Doubly Occupied:

       1Ap   -20.553988     2Ap    -1.328077     3Ap    -0.709409
       4Ap    -0.523486     1App   -0.490868

  @DF-RHF Final Energy:   -75.96196685184532

   => Energetics <=

    Nuclear Repulsion Energy =              8.8573715988897739
    One-Electron Energy =                -122.4270202434160524
    Two-Electron Energy =                  37.6076817926809710
    Total Energy =                        -75.9619668518453182
    Molecular point group: cs

    Geometry (in Angstrom), charge = 0, multiplicity = 1:

       Center              X                  Y                   Z               Mass
    ------------   -----------------  -----------------  -----------------  -----------------
           O          0.053306617825     0.019585102823     0.000000000000    15.994914619560
           H          0.053306617825    -0.880414897177     0.000000000000     1.007825032070
           H         -0.899321326375     0.569585102823     0.000000000000     1.007825032070

  Basis Set: 6-31G
    Blend: 6-31G
  Basis Set: (6-31G AUX)
    Blend: CC-PVDZ-JKFIT

  -Total Gradient:
     Atom            X                  Y                   Z
    ------   -----------------  -----------------  -----------------
       1        0.069342860830    -0.132571618832     0.000000000000
       2        0.017915428625     0.065267330866     0.000000000000
       3       -0.087258289454     0.067304287966     0.000000000000

*** Psi4 exiting successfully. Buy a developer a beer!
