                               Psi4 1.2.1 release

  ==> Input File <==

--------------------------------------------------------------------------
# density fitted hartree fock
molecule h2o {
0 1
H 0.0000000000 0.0000000000 1.1125000000
H 0.0000000000 0.9375000000 0.0000000000
O 0.0000000000 0.0000000000 0.0000000000
}

set basis 6-31g
energy('hf')

--------------------------------------------------------------------------

    Molecular point group: cs

    Geometry (in Angstrom), charge = 0, multiplicity = 1:

       Center              X                  Y                   Z               Mass
    ------------   -----------------  -----------------  -----------------  -----------------
         H            0.052460096846    -1.050247351742     0.000000000000     1.007825032070
         H           -0.885039903154     0.062252648258     0.000000000000     1.007825032070
         O            0.052460096846     0.062252648258     0.000000000000    15.994914619560

  Charge       = 0
  Multiplicity = 1
  Basis Set: 6-31G
    Blend: 6-31G
  Basis Set: (6-31G AUX)
    Blend: CC-PVDZ-JKFIT

    Orbital Energies [Eh]
    ---------------------

    Doubly Occupied:

       1Ap   -20.583711     2Ap    -1.345398     3Ap    -0.655390
       4Ap    -0.573601     1App   -0.506531

  @DF-RHF Final Energy:   -75.95625539190698

   => Energetics <=

    Nuclear Repulsion Energy =              8.6847001763437888
    One-Electron Energy =                -121.9526440441997863
    Two-Electron Energy =                  37.3116884759490191
    Total Energy =                        -75.9562553919069785

  Dipole Moment: [D]
     X:    -2.0411      Y:    -2.0052      Z:     0.0000     Total:     2.8613

*** Psi4 exiting successfully. Buy a developer a beer!
