                               Psi4 1.2a1.dev429

  ==> Input File <==

--------------------------------------------------------------------------
# density-fitted hartree fock energies and gradients with 6-31g
molecule h2o {
0 1
O 0.0000000000 0.0000000000 0.0000000000
H 0.0000000000 0.0000000000 1.2000000000
H 0.0000000000 0.5785088487 -0.6894399988
}

set basis 6-31g

gradient('mp2')
--------------------------------------------------------------------------

    Molecular point group: cs
  Charge       = 0
  Multiplicity = 1
  Basis Set: 6-31G
    Blend: 6-31G
  Basis Set: (6-31G AUX)
    Blend: CC-PVDZ-JKFIT

    Orbital Energies (a.u.)
    -----------------------

    Doubly Occupied:

       1Ap   -20.536990     2Ap    -1.293884     3Ap    -0.695932
       4Ap    -0.481457     1App   -0.472702

  @DF-RHF Final Energy:   -75.91998229918295

   => Energetics <=

    Nuclear Repulsion Energy =              8.4994449547832218
    One-Electron Energy =                -121.8769255509955229
    Two-Electron Energy =                  37.4574982970293604
    Total Energy =                        -75.9199822991829478
  Basis Set: (6-31G AUX)
    Blend: CC-PVDZ-RI
    Molecular point group: cs

    Geometry (in Angstrom), charge = 0, multiplicity = 1:

       Center              X                  Y                   Z               Mass
    ------------   -----------------  -----------------  -----------------  -----------------
           O          0.032371872245     0.028569628916     0.000000000000    15.994914619560
           H          0.032371872245    -1.171430371084     0.000000000000     1.007825032070
           H         -0.546136976455     0.718009627716     0.000000000000     1.007825032070

  Basis Set: 6-31G
    Blend: 6-31G
  Basis Set: (6-31G AUX)
    Blend: CC-PVDZ-JKFIT
  Basis Set: (6-31G AUX)
    Blend: CC-PVDZ-JKFIT
	 Reference Energy          =     -75.9199822991829478 [Eh]
	 Singles Energy            =      -0.0000000000000000 [Eh]
	 Same-Spin Energy          =      -0.0318160427301731 [Eh]
	 Opposite-Spin Energy      =      -0.1023033246381027 [Eh]
	 Correlation Energy        =      -0.1341193673682758 [Eh]
	 Total Energy              =     -76.0541016665512188 [Eh]

	 ================> DF-SCS-MP2 Energies <==================
	-----------------------------------------------------------
	 SCS Same-Spin Scale       =       0.3333333333333333 [-]
	 SCS Opposite-Spin Scale   =       1.2000000000000000 [-]
	 SCS Same-Spin Energy      =      -0.0106053475767244 [Eh]
	 SCS Opposite-Spin Energy  =      -0.1227639895657232 [Eh]
	 SCS Correlation Energy    =      -0.1333693371424476 [Eh]
	 SCS Total Energy          =     -76.0533516363254023 [Eh]
	-----------------------------------------------------------

  -Total Gradient:
     Atom            X                  Y                   Z
    ------   -----------------  -----------------  -----------------
       1       -0.115854484443     0.159744812292    -0.000000000000
       2        0.030780791475    -0.122206481391    -0.000000000000
       3        0.085073692967    -0.037538330901     0.000000000000

*** Psi4 exiting successfully. Buy a developer a beer!
