                               Psi4 1.2a1.dev429

  ==> Input File <==

--------------------------------------------------------------------------
# density-fitted hartree fock energies and gradients with 6-31g
molecule h20 {
0 1
O 0.0000000000 0.0000000000 0.0000000000
H 0.0000000000 0.0000000000 0.7000000000
H 0.0000000000 0.7713451316 -0.9192533317
}

set basis 6-31g

gradient('hf')
--------------------------------------------------------------------------

    Molecular point group: cs
  Charge       = 0
  Multiplicity = 1
  Basis Set: 6-31G
    Blend: 6-31G
  Basis Set: (6-31G AUX)
    Blend: CC-PVDZ-JKFIT

    Orbital Energies (a.u.)
    -----------------------

    Doubly Occupied:

       1Ap   -20.520325     2Ap    -1.386268     3Ap    -0.752558
       4Ap    -0.494176     1App   -0.483879

  @DF-RHF Final Energy:   -75.79761187706062

   => Energetics <=

    Nuclear Repulsion Energy =              9.8706260633633320
    One-Electron Energy =                -124.0620656180804957
    Two-Electron Energy =                  38.3938276776565388
    Total Energy =                        -75.7976118770606320
    Molecular point group: cs

    Geometry (in Angstrom), charge = 0, multiplicity = 1:

       Center              X                  Y                   Z               Mass
    ------------   -----------------  -----------------  -----------------  -----------------
           O          0.043162496326    -0.012268854416     0.000000000000    15.994914619560
           H          0.043162496326    -0.712268854416     0.000000000000     1.007825032070
           H         -0.728182635274     0.906984477284     0.000000000000     1.007825032070

  Basis Set: 6-31G
    Blend: 6-31G
  Basis Set: (6-31G AUX)
    Blend: CC-PVDZ-JKFIT

  -Total Gradient:
     Atom            X                  Y                   Z
    ------   -----------------  -----------------  -----------------
       1        0.034224791934    -0.864189552276     0.000000000000
       2        0.043444020257     0.732201778119     0.000000000000
       3       -0.077668812191     0.131987774156     0.000000000000

*** Psi4 exiting successfully. Buy a developer a beer!
