                               Psi4 1.2a1.dev429

  ==> Input File <==

--------------------------------------------------------------------------
# density-fitted hartree fock energies and gradients with 6-31g
molecule h2o {
0 1
O 0.0000000000 0.0000000000 0.0000000000
H 0.0000000000 0.0000000000 1.1000000000
H 0.0000000000 1.4772116295 -0.2604722665
}

set basis 6-31g

gradient('mp2')
--------------------------------------------------------------------------

    Molecular point group: cs
  Charge       = 0
  Multiplicity = 1
  Basis Set: 6-31G
    Blend: 6-31G
  Basis Set: (6-31G AUX)
    Blend: CC-PVDZ-JKFIT

    Orbital Energies (a.u.)
    -----------------------

    Doubly Occupied:

       1Ap   -20.620182     2Ap    -1.260865     3Ap    -0.589701
       1App   -0.500690     4Ap    -0.491760

  @DF-RHF Final Energy:   -75.85868915461702

   => Energetics <=

    Nuclear Repulsion Energy =              6.9343425726711407
    One-Electron Energy =                -118.6596678169328669
    Two-Electron Energy =                  35.8666360896447003
    Total Energy =                        -75.8586891546170250
  Basis Set: (6-31G AUX)
    Blend: CC-PVDZ-RI
    Molecular point group: cs

    Geometry (in Angstrom), charge = 0, multiplicity = 1:

       Center              X                  Y                   Z               Mass
    ------------   -----------------  -----------------  -----------------  -----------------
           O          0.082660976156     0.046977819952     0.000000000000    15.994914619560
           H          0.082660976156    -1.053022180048     0.000000000000     1.007825032070
           H         -1.394550653344     0.307450086452     0.000000000000     1.007825032070

  Basis Set: 6-31G
    Blend: 6-31G
  Basis Set: (6-31G AUX)
    Blend: CC-PVDZ-JKFIT
  Basis Set: (6-31G AUX)
    Blend: CC-PVDZ-JKFIT
	 Reference Energy          =     -75.8586891546170250 [Eh]
	 Singles Energy            =      -0.0000000000000000 [Eh]
	 Same-Spin Energy          =      -0.0362787358196088 [Eh]
	 Opposite-Spin Energy      =      -0.1259375172896657 [Eh]
	 Correlation Energy        =      -0.1622162531092745 [Eh]
	 Total Energy              =     -76.0209054077263033 [Eh]

	 ================> DF-SCS-MP2 Energies <==================
	-----------------------------------------------------------
	 SCS Same-Spin Scale       =       0.3333333333333333 [-]
	 SCS Opposite-Spin Scale   =       1.2000000000000000 [-]
	 SCS Same-Spin Energy      =      -0.0120929119398696 [Eh]
	 SCS Opposite-Spin Energy  =      -0.1511250207475988 [Eh]
	 SCS Correlation Energy    =      -0.1632179326874685 [Eh]
	 SCS Total Energy          =     -76.0219070873044984 [Eh]
	-----------------------------------------------------------

  -Total Gradient:
     Atom            X                  Y                   Z
    ------   -----------------  -----------------  -----------------
       1        0.090496073777     0.039177145891     0.000000000000
       2        0.006645509015    -0.061254379491    -0.000000000000
       3       -0.097141582792     0.022077233600    -0.000000000000

*** Psi4 exiting successfully. Buy a developer a beer!
