                               Psi4 1.2a1.dev429

  ==> Input File <==

--------------------------------------------------------------------------
# density-fitted hartree fock energies and gradients with 6-31g
molecule h2o {
0 1
O 0.0000000000 0.0000000000 0.0000000000
H 0.0000000000 0.0000000000 1.2000000000
H 0.0000000000 1.2802500789 -0.2257426310
}

set basis 6-31g

gradient('mp2')
--------------------------------------------------------------------------

    Molecular point group: cs
  Charge       = 0
  Multiplicity = 1
  Basis Set: 6-31G
    Blend: 6-31G
  Basis Set: (6-31G AUX)
    Blend: CC-PVDZ-JKFIT

    Orbital Energies (a.u.)
    -----------------------

    Doubly Occupied:

       1Ap   -20.617609     2Ap    -1.256168     3Ap    -0.577384
       4Ap    -0.521413     1App   -0.498919

  @DF-RHF Final Energy:   -75.88714907761678

   => Energetics <=

    Nuclear Repulsion Energy =              7.0604843915611948
    One-Electron Energy =                -118.9522790753583195
    Two-Electron Energy =                  36.0046456061803397
    Total Energy =                        -75.8871490776167832
  Basis Set: (6-31G AUX)
    Blend: CC-PVDZ-RI
    Molecular point group: cs

    Geometry (in Angstrom), charge = 0, multiplicity = 1:

       Center              X                  Y                   Z               Mass
    ------------   -----------------  -----------------  -----------------  -----------------
           O          0.071639512669     0.054516944993     0.000000000000    15.994914619560
           H          0.071639512669    -1.145483055007     0.000000000000     1.007825032070
           H         -1.208610566231     0.280259575993     0.000000000000     1.007825032070

  Basis Set: 6-31G
    Blend: 6-31G
  Basis Set: (6-31G AUX)
    Blend: CC-PVDZ-JKFIT
  Basis Set: (6-31G AUX)
    Blend: CC-PVDZ-JKFIT
	 Reference Energy          =     -75.8871490776167832 [Eh]
	 Singles Energy            =      -0.0000000000000000 [Eh]
	 Same-Spin Energy          =      -0.0359556938256455 [Eh]
	 Opposite-Spin Energy      =      -0.1216738646309458 [Eh]
	 Correlation Energy        =      -0.1576295584565913 [Eh]
	 Total Energy              =     -76.0447786360733744 [Eh]

	 ================> DF-SCS-MP2 Energies <==================
	-----------------------------------------------------------
	 SCS Same-Spin Scale       =       0.3333333333333333 [-]
	 SCS Opposite-Spin Scale   =       1.2000000000000000 [-]
	 SCS Same-Spin Energy      =      -0.0119852312752152 [Eh]
	 SCS Opposite-Spin Energy  =      -0.1460086375571350 [Eh]
	 SCS Correlation Energy    =      -0.1579938688323502 [Eh]
	 SCS Total Energy          =     -76.0451429464491326 [Eh]
	-----------------------------------------------------------

  -Total Gradient:
     Atom            X                  Y                   Z
    ------   -----------------  -----------------  -----------------
       1        0.094737035757     0.068796191564    -0.000000000000
       2        0.004404553687    -0.090405985680     0.000000000000
       3       -0.099141589444     0.021609794116    -0.000000000000

*** Psi4 exiting successfully. Buy a developer a beer!
