                               Psi4 1.2a1.dev429

  ==> Input File <==

--------------------------------------------------------------------------
# density-fitted hartree fock energies and gradients with 6-31g
molecule h20 {
0 1
O 0.0000000000 0.0000000000 0.0000000000
H 0.0000000000 0.0000000000 1.0000000000
H 0.0000000000 0.3762221577 -1.0336618829
}

set basis 6-31g

gradient('hf')
--------------------------------------------------------------------------

    Molecular point group: cs
  Charge       = 0
  Multiplicity = 1
  Basis Set: 6-31G
    Blend: 6-31G
  Basis Set: (6-31G AUX)
    Blend: CC-PVDZ-JKFIT

    Orbital Energies (a.u.)
    -----------------------

    Doubly Occupied:

       1Ap   -20.516842     2Ap    -1.256933     3Ap    -0.699008
       4Ap    -0.458193     1App   -0.456234

  @DF-RHF Final Energy:   -75.92263642986367

   => Energetics <=

    Nuclear Repulsion Energy =              8.3378466519097429
    One-Electron Energy =                -121.7465454022138118
    Two-Electron Energy =                  37.4860623204403964
    Total Energy =                        -75.9226364298636724
    Molecular point group: cs

    Geometry (in Angstrom), charge = 0, multiplicity = 1:

       Center              X                  Y                   Z               Mass
    ------------   -----------------  -----------------  -----------------  -----------------
           O          0.021052427551    -0.001883632679     0.000000000000    15.994914619560
           H          0.021052427551    -1.001883632679     0.000000000000     1.007825032070
           H         -0.355169730149     1.031778250221     0.000000000000     1.007825032070

  Basis Set: 6-31G
    Blend: 6-31G
  Basis Set: (6-31G AUX)
    Blend: CC-PVDZ-JKFIT

  -Total Gradient:
     Atom            X                  Y                   Z
    ------   -----------------  -----------------  -----------------
       1       -0.006834777111    -0.061027990357     0.000000000000
       2        0.026727906499    -0.064670815937     0.000000000000
       3       -0.019893129388     0.125698806294     0.000000000000

*** Psi4 exiting successfully. Buy a developer a beer!
