                               Psi4 1.2a1.dev429

  ==> Input File <==

--------------------------------------------------------------------------
# density-fitted hartree fock energies and gradients with 6-31g
molecule h20 {
0 1
O 0.0000000000 0.0000000000 0.0000000000
H 0.0000000000 0.0000000000 0.7000000000
H 0.0000000000 1.0392304845 -0.6000000000
}

set basis 6-31g

gradient('hf')
--------------------------------------------------------------------------

    Molecular point group: cs
  Charge       = 0
  Multiplicity = 1
  Basis Set: 6-31G
    Blend: 6-31G
  Basis Set: (6-31G AUX)
    Blend: CC-PVDZ-JKFIT

    Orbital Energies (a.u.)
    -----------------------

    Doubly Occupied:

       1Ap   -20.541939     2Ap    -1.409989     3Ap    -0.739593
       4Ap    -0.524391     1App   -0.497966

  @DF-RHF Final Energy:   -75.81369300523690

   => Energetics <=

    Nuclear Repulsion Energy =              9.8935393537809251
    One-Electron Energy =                -123.9867072118176736
    Two-Electron Energy =                  38.2794748527998436
    Total Energy =                        -75.8136930052368996
    Molecular point group: cs

    Geometry (in Angstrom), charge = 0, multiplicity = 1:

       Center              X                  Y                   Z               Mass
    ------------   -----------------  -----------------  -----------------  -----------------
           O          0.058152673987     0.005595743664     0.000000000000    15.994914619560
           H          0.058152673987    -0.694404256336     0.000000000000     1.007825032070
           H         -0.981077810513     0.605595743664     0.000000000000     1.007825032070

  Basis Set: 6-31G
    Blend: 6-31G
  Basis Set: (6-31G AUX)
    Blend: CC-PVDZ-JKFIT

  -Total Gradient:
     Atom            X                  Y                   Z
    ------   -----------------  -----------------  -----------------
       1        0.091966025508    -0.819936678368     0.000000000000
       2        0.021704842799     0.739688926645     0.000000000000
       3       -0.113670868306     0.080247751723     0.000000000000

*** Psi4 exiting successfully. Buy a developer a beer!
