                               Psi4 1.2a1.dev429

  ==> Input File <==

--------------------------------------------------------------------------
# density-fitted hartree fock energies and gradients with 6-31g
molecule h2o {
0 1
O 0.0000000000 0.0000000000 0.0000000000
H 0.0000000000 0.0000000000 1.0000000000
H 0.0000000000 1.0000000000 0.0000000000
}

set basis 6-31g

gradient('mp2')
--------------------------------------------------------------------------

    Molecular point group: c2v
  Charge       = 0
  Multiplicity = 1
  Basis Set: 6-31G
    Blend: 6-31G
  Basis Set: (6-31G AUX)
    Blend: CC-PVDZ-JKFIT

    Orbital Energies (a.u.)
    -----------------------

    Doubly Occupied:

       1A1   -20.579243     2A1    -1.350632     1B2    -0.661223
       3A1    -0.582608     1B1    -0.506533

  @DF-RHF Final Energy:   -75.96968520716969

   => Energetics <=

    Nuclear Repulsion Energy =              8.8410201300833595
    One-Electron Energy =                -122.2609306852911004
    Two-Electron Energy =                  37.4502253480380460
    Total Energy =                        -75.9696852071696895
  Basis Set: (6-31G AUX)
    Blend: CC-PVDZ-RI
    Molecular point group: c2v

    Geometry (in Angstrom), charge = 0, multiplicity = 1:

       Center              X                  Y                   Z               Mass
    ------------   -----------------  -----------------  -----------------  -----------------
           O         -0.000000000000     0.000000000000    -0.079135765807    15.994914619560
           H          0.000000000000    -0.707106781187     0.627971015380     1.007825032070
           H         -0.000000000000     0.707106781187     0.627971015380     1.007825032070

  Basis Set: 6-31G
    Blend: 6-31G
  Basis Set: (6-31G AUX)
    Blend: CC-PVDZ-JKFIT
  Basis Set: (6-31G AUX)
    Blend: CC-PVDZ-JKFIT
	 Reference Energy          =     -75.9696852071696895 [Eh]
	 Singles Energy            =      -0.0000000000000000 [Eh]
	 Same-Spin Energy          =      -0.0312122824903759 [Eh]
	 Opposite-Spin Energy      =      -0.1031075573095055 [Eh]
	 Correlation Energy        =      -0.1343198397998815 [Eh]
	 Total Energy              =     -76.1040050469695757 [Eh]

	 ================> DF-SCS-MP2 Energies <==================
	-----------------------------------------------------------
	 SCS Same-Spin Scale       =       0.3333333333333333 [-]
	 SCS Opposite-Spin Scale   =       1.2000000000000000 [-]
	 SCS Same-Spin Energy      =      -0.0104040941634586 [Eh]
	 SCS Opposite-Spin Energy  =      -0.1237290687714067 [Eh]
	 SCS Correlation Energy    =      -0.1341331629348653 [Eh]
	 SCS Total Energy          =     -76.1038183701045483 [Eh]
	-----------------------------------------------------------

  -Total Gradient:
     Atom            X                  Y                   Z
    ------   -----------------  -----------------  -----------------
       1        0.000000000000     0.000000000013    -0.052335967346
       2       -0.000000000000     0.018979306041     0.026167983679
       3       -0.000000000000    -0.018979306054     0.026167983667

*** Psi4 exiting successfully. Buy a developer a beer!
