                               Psi4 1.2a1.dev429

  ==> Input File <==

--------------------------------------------------------------------------
# density-fitted hartree fock energies and gradients with 6-31g
molecule h2o {
0 1
O 0.0000000000 0.0000000000 0.0000000000
H 0.0000000000 0.0000000000 0.8000000000
H 0.0000000000 1.0336618829 -0.3762221577
}

set basis 6-31g

gradient('mp2')
--------------------------------------------------------------------------

    Molecular point group: cs
  Charge       = 0
  Multiplicity = 1
  Basis Set: 6-31G
    Blend: 6-31G
  Basis Set: (6-31G AUX)
    Blend: CC-PVDZ-JKFIT

    Orbital Energies (a.u.)
    -----------------------

    Doubly Occupied:

       1Ap   -20.553021     2Ap    -1.378820     3Ap    -0.726292
       4Ap    -0.546837     1App   -0.500903

  @DF-RHF Final Energy:   -75.93276060964713

   => Energetics <=

    Nuclear Repulsion Energy =              9.4782776829571080
    One-Electron Energy =                -123.4103283236256914
    Two-Electron Energy =                  37.9992900310214452
    Total Energy =                        -75.9327606096471328
  Basis Set: (6-31G AUX)
    Blend: CC-PVDZ-RI
    Molecular point group: cs

    Geometry (in Angstrom), charge = 0, multiplicity = 1:

       Center              X                  Y                   Z               Mass
    ------------   -----------------  -----------------  -----------------  -----------------
           O          0.057841069316     0.023713521758     0.000000000000    15.994914619560
           H          0.057841069316    -0.776286478242     0.000000000000     1.007825032070
           H         -0.975820813584     0.399935679458     0.000000000000     1.007825032070

  Basis Set: 6-31G
    Blend: 6-31G
  Basis Set: (6-31G AUX)
    Blend: CC-PVDZ-JKFIT
  Basis Set: (6-31G AUX)
    Blend: CC-PVDZ-JKFIT
	 Reference Energy          =     -75.9327606096471328 [Eh]
	 Singles Energy            =      -0.0000000000000000 [Eh]
	 Same-Spin Energy          =      -0.0296391919162062 [Eh]
	 Opposite-Spin Energy      =      -0.0973652631384054 [Eh]
	 Correlation Energy        =      -0.1270044550546116 [Eh]
	 Total Energy              =     -76.0597650647017502 [Eh]

	 ================> DF-SCS-MP2 Energies <==================
	-----------------------------------------------------------
	 SCS Same-Spin Scale       =       0.3333333333333333 [-]
	 SCS Opposite-Spin Scale   =       1.2000000000000000 [-]
	 SCS Same-Spin Energy      =      -0.0098797306387354 [Eh]
	 SCS Opposite-Spin Energy  =      -0.1168383157660864 [Eh]
	 SCS Correlation Energy    =      -0.1267180464048218 [Eh]
	 SCS Total Energy          =     -76.0594786560519509 [Eh]
	-----------------------------------------------------------

  -Total Gradient:
     Atom            X                  Y                   Z
    ------   -----------------  -----------------  -----------------
       1        0.078119883338    -0.352007311526     0.000000000000
       2        0.000322571684     0.323206939670    -0.000000000000
       3       -0.078442455022     0.028800371856     0.000000000000

*** Psi4 exiting successfully. Buy a developer a beer!
