                               Psi4 1.2a1.dev429

  ==> Input File <==

--------------------------------------------------------------------------
# density-fitted hartree fock energies and gradients with 6-31g
molecule h2o {
0 1
O 0.0000000000 0.0000000000 0.0000000000
H 0.0000000000 0.0000000000 0.9000000000
H 0.0000000000 0.0000000000 -0.9000000000
}

set basis 6-31g

gradient('mp2')
--------------------------------------------------------------------------

    Molecular point group: d2h
  Charge       = 0
  Multiplicity = 1
  Basis Set: 6-31G
    Blend: 6-31G
  Basis Set: (6-31G AUX)
    Blend: CC-PVDZ-JKFIT

    Orbital Energies (a.u.)
    -----------------------

    Doubly Occupied:

       1Ag   -20.502236     2Ag    -1.324710     1B1u   -0.812211
       1B2u   -0.476684     1B3u   -0.476684

  @DF-RHF Final Energy:   -75.94303131053982

   => Energetics <=

    Nuclear Repulsion Energy =              9.7015821574833332
    One-Electron Energy =                -124.1041744655989305
    Two-Electron Energy =                  38.4595609975757853
    Total Energy =                        -75.9430313105398227
  Basis Set: (6-31G AUX)
    Blend: CC-PVDZ-RI
    Molecular point group: d2h

    Geometry (in Angstrom), charge = 0, multiplicity = 1:

       Center              X                  Y                   Z               Mass
    ------------   -----------------  -----------------  -----------------  -----------------
           O          0.000000000000     0.000000000000     0.000000000000    15.994914619560
           H          0.000000000000     0.000000000000     0.900000000000     1.007825032070
           H          0.000000000000     0.000000000000    -0.900000000000     1.007825032070

  Basis Set: 6-31G
    Blend: 6-31G
  Basis Set: (6-31G AUX)
    Blend: CC-PVDZ-JKFIT
  Basis Set: (6-31G AUX)
    Blend: CC-PVDZ-JKFIT
	 Reference Energy          =     -75.9430313105398227 [Eh]
	 Singles Energy            =      -0.0000000000000000 [Eh]
	 Same-Spin Energy          =      -0.0292289241153217 [Eh]
	 Opposite-Spin Energy      =      -0.0920181447478584 [Eh]
	 Correlation Energy        =      -0.1212470688631801 [Eh]
	 Total Energy              =     -76.0642783794030066 [Eh]

	 ================> DF-SCS-MP2 Energies <==================
	-----------------------------------------------------------
	 SCS Same-Spin Scale       =       0.3333333333333333 [-]
	 SCS Opposite-Spin Scale   =       1.2000000000000000 [-]
	 SCS Same-Spin Energy      =      -0.0097429747051072 [Eh]
	 SCS Opposite-Spin Energy  =      -0.1104217736974301 [Eh]
	 SCS Correlation Energy    =      -0.1201647484025373 [Eh]
	 SCS Total Energy          =     -76.0631960589423670 [Eh]
	-----------------------------------------------------------

  -Total Gradient:
     Atom            X                  Y                   Z
    ------   -----------------  -----------------  -----------------
       1        0.000000000000     0.000000000000    -0.000000000005
       2       -0.000000000000    -0.000000000000    -0.053291089381
       3       -0.000000000000    -0.000000000000     0.053291089385

*** Psi4 exiting successfully. Buy a developer a beer!
