                               Psi4 1.2a1.dev429

  ==> Input File <==

--------------------------------------------------------------------------
# density-fitted hartree fock energies and gradients with 6-31g
molecule h2o {
0 1
O 0.0000000000 0.0000000000 0.0000000000
H 0.0000000000 0.0000000000 1.3000000000
H 0.0000000000 0.7070663707 -0.8426488874
}

set basis 6-31g

gradient('mp2')
--------------------------------------------------------------------------

    Molecular point group: cs
  Charge       = 0
  Multiplicity = 1
  Basis Set: 6-31G
    Blend: 6-31G
  Basis Set: (6-31G AUX)
    Blend: CC-PVDZ-JKFIT

    Orbital Energies (a.u.)
    -----------------------

    Doubly Occupied:

       1Ap   -20.559506     2Ap    -1.232451     3Ap    -0.617977
       1App   -0.464688     4Ap    -0.463130

  @DF-RHF Final Energy:   -75.87779455072828

   => Energetics <=

    Nuclear Repulsion Energy =              7.3395698838645780
    One-Electron Energy =                -119.7592235072213356
    Two-Electron Energy =                  36.5418590726284620
    Total Energy =                        -75.8777945507282823
  Basis Set: (6-31G AUX)
    Blend: CC-PVDZ-RI
    Molecular point group: cs

    Geometry (in Angstrom), charge = 0, multiplicity = 1:

       Center              X                  Y                   Z               Mass
    ------------   -----------------  -----------------  -----------------  -----------------
           O          0.039565621636     0.025592195904     0.000000000000    15.994914619560
           H          0.039565621636    -1.274407804096     0.000000000000     1.007825032070
           H         -0.667500749064     0.868241083304     0.000000000000     1.007825032070

  Basis Set: 6-31G
    Blend: 6-31G
  Basis Set: (6-31G AUX)
    Blend: CC-PVDZ-JKFIT
  Basis Set: (6-31G AUX)
    Blend: CC-PVDZ-JKFIT
	 Reference Energy          =     -75.8777945507282823 [Eh]
	 Singles Energy            =      -0.0000000000000000 [Eh]
	 Same-Spin Energy          =      -0.0342318476575729 [Eh]
	 Opposite-Spin Energy      =      -0.1123931801516638 [Eh]
	 Correlation Energy        =      -0.1466250278092366 [Eh]
	 Total Energy              =     -76.0244195785375183 [Eh]

	 ================> DF-SCS-MP2 Energies <==================
	-----------------------------------------------------------
	 SCS Same-Spin Scale       =       0.3333333333333333 [-]
	 SCS Opposite-Spin Scale   =       1.2000000000000000 [-]
	 SCS Same-Spin Energy      =      -0.0114106158858576 [Eh]
	 SCS Opposite-Spin Energy  =      -0.1348718161819965 [Eh]
	 SCS Correlation Energy    =      -0.1462824320678541 [Eh]
	 SCS Total Energy          =     -76.0240769827961316 [Eh]
	-----------------------------------------------------------

  -Total Gradient:
     Atom            X                  Y                   Z
    ------   -----------------  -----------------  -----------------
       1       -0.014682659637     0.028785132009    -0.000000000000
       2        0.034689182024    -0.116406907186     0.000000000000
       3       -0.020006522388     0.087621775177     0.000000000000

*** Psi4 exiting successfully. Buy a developer a beer!
