                               Psi4 1.2a1.dev429

  ==> Input File <==

--------------------------------------------------------------------------
# density-fitted hartree fock energies and gradients with 6-31g
molecule h20 {
0 1
O 0.0000000000 0.0000000000 0.0000000000
H 0.0000000000 0.0000000000 1.4000000000
H 0.0000000000 0.7000000000 0.0000000000
}

set basis 6-31g

gradient('hf')
--------------------------------------------------------------------------

    Molecular point group: cs
  Charge       = 0
  Multiplicity = 1
  Basis Set: 6-31G
    Blend: 6-31G
  Basis Set: (6-31G AUX)
    Blend: CC-PVDZ-JKFIT

    Orbital Energies (a.u.)
    -----------------------

    Doubly Occupied:

       1Ap   -20.580104     2Ap    -1.431539     3Ap    -0.691907
       4Ap    -0.529187     1App   -0.515241

  @DF-RHF Final Energy:   -75.76003081016073

   => Energetics <=

    Nuclear Repulsion Energy =              9.4096882074145203
    One-Electron Energy =                -122.8434807507932476
    Two-Electron Energy =                  37.6737617332179866
    Total Energy =                        -75.7600308101607425
    Molecular point group: cs

    Geometry (in Angstrom), charge = 0, multiplicity = 1:

       Center              X                  Y                   Z               Mass
    ------------   -----------------  -----------------  -----------------  -----------------
           O          0.039170205645     0.078340411291     0.000000000000    15.994914619560
           H          0.039170205645    -1.321659588709     0.000000000000     1.007825032070
           H         -0.660829794355     0.078340411291     0.000000000000     1.007825032070

  Basis Set: 6-31G
    Blend: 6-31G
  Basis Set: (6-31G AUX)
    Blend: CC-PVDZ-JKFIT

  -Total Gradient:
     Atom            X                  Y                   Z
    ------   -----------------  -----------------  -----------------
       1       -0.735791782148     0.157966498210     0.000000000000
       2       -0.016176789818    -0.125612918380     0.000000000000
       3        0.751968571966    -0.032353579830     0.000000000000

*** Psi4 exiting successfully. Buy a developer a beer!
