                               Psi4 1.2a1.dev429

  ==> Input File <==

--------------------------------------------------------------------------
# density-fitted hartree fock energies and gradients with 6-31g
molecule h20 {
0 1
O 0.0000000000 0.0000000000 0.0000000000
H 0.0000000000 0.0000000000 0.9000000000
H 0.0000000000 0.8660254038 -0.5000000000
}

set basis 6-31g

gradient('hf')
--------------------------------------------------------------------------

    Molecular point group: cs
  Charge       = 0
  Multiplicity = 1
  Basis Set: 6-31G
    Blend: 6-31G
  Basis Set: (6-31G AUX)
    Blend: CC-PVDZ-JKFIT

    Orbital Energies (a.u.)
    -----------------------

    Doubly Occupied:

       1Ap   -20.546246     2Ap    -1.345766     3Ap    -0.738538
       4Ap    -0.532071     1App   -0.493942

  @DF-RHF Final Energy:   -75.97807757925031

   => Energetics <=

    Nuclear Repulsion Energy =              9.2586673399555703
    One-Electron Energy =                -123.1603655910698762
    Two-Electron Energy =                  37.9236206718639934
    Total Energy =                        -75.9780775792503107
    Molecular point group: cs

    Geometry (in Angstrom), charge = 0, multiplicity = 1:

       Center              X                  Y                   Z               Mass
    ------------   -----------------  -----------------  -----------------  -----------------
           O          0.048460561658     0.022382974654     0.000000000000    15.994914619560
           H          0.048460561658    -0.877617025346     0.000000000000     1.007825032070
           H         -0.817564842142     0.522382974654     0.000000000000     1.007825032070

  Basis Set: 6-31G
    Blend: 6-31G
  Basis Set: (6-31G AUX)
    Blend: CC-PVDZ-JKFIT

  -Total Gradient:
     Atom            X                  Y                   Z
    ------   -----------------  -----------------  -----------------
       1        0.026846527925    -0.100517501528     0.000000000000
       2        0.013920308374     0.062514346464     0.000000000000
       3       -0.040766836299     0.038003155063     0.000000000000

*** Psi4 exiting successfully. Buy a developer a beer!
