                               Psi4 1.2.1 release

  ==> Input File <==

--------------------------------------------------------------------------
# density fitted hartree fock
molecule h2o {
0 1
H 0.0000000000 0.0000000000 1.0250000000
H 0.0000000000 0.8500000000 0.0000000000
O 0.0000000000 0.0000000000 0.0000000000
}

set basis 6-31g
energy('hf')

--------------------------------------------------------------------------

    Molecular point group: cs

    Geometry (in Angstrom), charge = 0, multiplicity = 1:

       Center              X                  Y                   Z               Mass
    ------------   -----------------  -----------------  -----------------  -----------------
         H            0.047563821141    -0.967643627448     0.000000000000     1.007825032070
         H           -0.802436178859     0.057356372552     0.000000000000     1.007825032070
         O            0.047563821141     0.057356372552     0.000000000000    15.994914619560

  Charge       = 0
  Multiplicity = 1
  Basis Set: 6-31G
    Blend: 6-31G
  Basis Set: (6-31G AUX)
    Blend: CC-PVDZ-JKFIT

    Orbital Energies [Eh]
    ---------------------

    Doubly Occupied:

       1Ap   -20.565533     2Ap    -1.393965     3Ap    -0.694777
       4Ap    -0.589088     1App   -0.509790

  @DF-RHF Final Energy:   -75.95229693593970

   => Energetics <=

    Nuclear Repulsion Energy =              9.5080582408094969
    One-Electron Energy =                -123.4144013946650063
    Two-Electron Energy =                  37.9540462179158169
    Total Energy =                        -75.9522969359396996

  Dipole Moment: [D]
     X:    -2.0029      Y:    -2.0085      Z:     0.0000     Total:     2.8365

*** Psi4 exiting successfully. Buy a developer a beer!
