                               Psi4 1.2a1.dev429

  ==> Input File <==

--------------------------------------------------------------------------
# density-fitted hartree fock energies and gradients with 6-31g
molecule h2o {
0 1
O 0.0000000000 0.0000000000 0.0000000000
H 0.0000000000 0.0000000000 1.5000000000
H 0.0000000000 0.7070663707 -0.8426488874
}

set basis 6-31g

gradient('mp2')
--------------------------------------------------------------------------

    Molecular point group: cs
  Charge       = 0
  Multiplicity = 1
  Basis Set: 6-31G
    Blend: 6-31G
  Basis Set: (6-31G AUX)
    Blend: CC-PVDZ-JKFIT

    Orbital Energies (a.u.)
    -----------------------

    Doubly Occupied:

       1Ap   -20.570482     2Ap    -1.222716     3Ap    -0.587091
       1App   -0.465157     4Ap    -0.446082

  @DF-RHF Final Energy:   -75.82604065815462

   => Energetics <=

    Nuclear Repulsion Energy =              6.8870929769913420
    One-Electron Energy =                -118.8432120796273068
    Two-Electron Energy =                  36.1300784444813416
    Total Energy =                        -75.8260406581546249
  Basis Set: (6-31G AUX)
    Blend: CC-PVDZ-RI
    Molecular point group: cs

    Geometry (in Angstrom), charge = 0, multiplicity = 1:

       Center              X                  Y                   Z               Mass
    ------------   -----------------  -----------------  -----------------  -----------------
           O          0.039565621636     0.036783683231     0.000000000000    15.994914619560
           H          0.039565621636    -1.463216316769     0.000000000000     1.007825032070
           H         -0.667500749064     0.879432570631     0.000000000000     1.007825032070

  Basis Set: 6-31G
    Blend: 6-31G
  Basis Set: (6-31G AUX)
    Blend: CC-PVDZ-JKFIT
  Basis Set: (6-31G AUX)
    Blend: CC-PVDZ-JKFIT
	 Reference Energy          =     -75.8260406581546249 [Eh]
	 Singles Energy            =      -0.0000000000000000 [Eh]
	 Same-Spin Energy          =      -0.0355309700682907 [Eh]
	 Opposite-Spin Energy      =      -0.1209944578083446 [Eh]
	 Correlation Energy        =      -0.1565254278766353 [Eh]
	 Total Energy              =     -75.9825660860312553 [Eh]

	 ================> DF-SCS-MP2 Energies <==================
	-----------------------------------------------------------
	 SCS Same-Spin Scale       =       0.3333333333333333 [-]
	 SCS Opposite-Spin Scale   =       1.2000000000000000 [-]
	 SCS Same-Spin Energy      =      -0.0118436566894302 [Eh]
	 SCS Opposite-Spin Energy  =      -0.1451933493700136 [Eh]
	 SCS Correlation Energy    =      -0.1570370060594438 [Eh]
	 SCS Total Energy          =     -75.9830776642140648 [Eh]
	-----------------------------------------------------------

  -Total Gradient:
     Atom            X                  Y                   Z
    ------   -----------------  -----------------  -----------------
       1       -0.018973444573     0.019522250437    -0.000000000000
       2        0.031696622294    -0.101927674449    -0.000000000000
       3       -0.012723177720     0.082405424012     0.000000000000

*** Psi4 exiting successfully. Buy a developer a beer!
