                               Psi4 1.2a1.dev429

  ==> Input File <==

--------------------------------------------------------------------------
# density-fitted hartree fock energies and gradients with 6-31g
molecule h2o {
0 1
O 0.0000000000 0.0000000000 0.0000000000
H 0.0000000000 0.0000000000 1.5000000000
H 0.0000000000 0.9848077530 -0.1736481777
}

set basis 6-31g

gradient('mp2')
--------------------------------------------------------------------------

    Molecular point group: cs
  Charge       = 0
  Multiplicity = 1
  Basis Set: 6-31G
    Blend: 6-31G
  Basis Set: (6-31G AUX)
    Blend: CC-PVDZ-JKFIT

    Orbital Energies (a.u.)
    -----------------------

    Doubly Occupied:

       1Ap   -20.609541     2Ap    -1.284719     3Ap    -0.615568
       1App   -0.501287     4Ap    -0.493621

  @DF-RHF Final Energy:   -75.87158040000631

   => Energetics <=

    Nuclear Repulsion Energy =              7.3282021082256055
    One-Electron Energy =                -119.3900932324455084
    Two-Electron Energy =                  36.1903107242135889
    Total Energy =                        -75.8715804000063088
  Basis Set: (6-31G AUX)
    Blend: CC-PVDZ-RI
    Molecular point group: cs

    Geometry (in Angstrom), charge = 0, multiplicity = 1:

       Center              X                  Y                   Z               Mass
    ------------   -----------------  -----------------  -----------------  -----------------
           O          0.055107317437     0.074219248054     0.000000000000    15.994914619560
           H          0.055107317437    -1.425780751946     0.000000000000     1.007825032070
           H         -0.929700435563     0.247867425754     0.000000000000     1.007825032070

  Basis Set: 6-31G
    Blend: 6-31G
  Basis Set: (6-31G AUX)
    Blend: CC-PVDZ-JKFIT
  Basis Set: (6-31G AUX)
    Blend: CC-PVDZ-JKFIT
	 Reference Energy          =     -75.8715804000063088 [Eh]
	 Singles Energy            =      -0.0000000000000000 [Eh]
	 Same-Spin Energy          =      -0.0348944217796820 [Eh]
	 Opposite-Spin Energy      =      -0.1213582772821613 [Eh]
	 Correlation Energy        =      -0.1562526990618433 [Eh]
	 Total Energy              =     -76.0278330990681468 [Eh]

	 ================> DF-SCS-MP2 Energies <==================
	-----------------------------------------------------------
	 SCS Same-Spin Scale       =       0.3333333333333333 [-]
	 SCS Opposite-Spin Scale   =       1.2000000000000000 [-]
	 SCS Same-Spin Energy      =      -0.0116314739265607 [Eh]
	 SCS Opposite-Spin Energy  =      -0.1456299327385936 [Eh]
	 SCS Correlation Energy    =      -0.1572614066651543 [Eh]
	 SCS Total Energy          =     -76.0288418066714655 [Eh]
	-----------------------------------------------------------

  -Total Gradient:
     Atom            X                  Y                   Z
    ------   -----------------  -----------------  -----------------
       1        0.000649727659     0.095259024826     0.000000000000
       2        0.003501235463    -0.101323835387    -0.000000000000
       3       -0.004150963122     0.006064810560    -0.000000000000

*** Psi4 exiting successfully. Buy a developer a beer!
