                               Psi4 1.2a1.dev429

  ==> Input File <==

--------------------------------------------------------------------------
# density-fitted hartree fock energies and gradients with 6-31g
molecule h20 {
0 1
O 0.0000000000 0.0000000000 0.0000000000
O 0.0000000000 0.0000000000 1.3373737374
}

set basis 6-31g

gradient('hf')
--------------------------------------------------------------------------

    Molecular point group: d2h
  Charge       = 0
  Multiplicity = 1
  Basis Set: 6-31G
    Blend: 6-31G
  Basis Set: (6-31G AUX)
    Blend: CC-PVDZ-JKFIT

    Orbital Energies (a.u.)
    -----------------------

    Doubly Occupied:

       1Ag   -20.778241     1B1u  -20.777696     2Ag    -1.583943
       2B1u   -1.149733     1B2u   -0.742662     3Ag    -0.690222
       1B3u   -0.604466     1B3g   -0.528194

  @DF-RHF Final Energy:  -149.43647295447624

   => Energetics <=

    Nuclear Repulsion Energy =             25.3237673229637288
    One-Electron Energy =                -255.8101662532131115
    Two-Electron Energy =                  81.0499259757731352
    Total Energy =                       -149.4364729544762440
    Molecular point group: d2h

    Geometry (in Angstrom), charge = 0, multiplicity = 1:

       Center              X                  Y                   Z               Mass
    ------------   -----------------  -----------------  -----------------  -----------------
           O          0.000000000000     0.000000000000    -0.668686868700    15.994914619560
           O          0.000000000000     0.000000000000     0.668686868700    15.994914619560

  Basis Set: 6-31G
    Blend: 6-31G
  Basis Set: (6-31G AUX)
    Blend: CC-PVDZ-JKFIT

  -Total Gradient:
     Atom            X                  Y                   Z
    ------   -----------------  -----------------  -----------------
       1        0.000000000000    -0.000000000000    -0.156768088658
       2        0.000000000000     0.000000000000     0.156768088658

*** Psi4 exiting successfully. Buy a developer a beer!
