                               Psi4 1.2a1.dev429

  ==> Input File <==

--------------------------------------------------------------------------
# density-fitted hartree fock energies and gradients with 6-31g
molecule h2o {
0 1
O 0.0000000000 0.0000000000 0.0000000000
H 0.0000000000 0.0000000000 1.4000000000
H 0.0000000000 0.9641814145 -1.1490666647
}

set basis 6-31g

gradient('mp2')
--------------------------------------------------------------------------

    Molecular point group: cs
  Charge       = 0
  Multiplicity = 1
  Basis Set: 6-31G
    Blend: 6-31G
  Basis Set: (6-31G AUX)
    Blend: CC-PVDZ-JKFIT

    Orbital Energies (a.u.)
    -----------------------

    Doubly Occupied:

       1Ap   -20.596943     2Ap    -1.190438     3Ap    -0.524096
       1App   -0.468670     4Ap    -0.440549

  @DF-RHF Final Energy:   -75.75773512041268

   => Energetics <=

    Nuclear Repulsion Energy =              6.0403186490234724
    One-Electron Energy =                -117.1547160767307219
    Two-Electron Energy =                  35.3566623072945703
    Total Energy =                        -75.7577351204126757
  Basis Set: (6-31G AUX)
    Blend: CC-PVDZ-RI
    Molecular point group: cs

    Geometry (in Angstrom), charge = 0, multiplicity = 1:

       Center              X                  Y                   Z               Mass
    ------------   -----------------  -----------------  -----------------  -----------------
           O          0.053953120408     0.014041586210     0.000000000000    15.994914619560
           H          0.053953120408    -1.385958413790     0.000000000000     1.007825032070
           H         -0.910228294092     1.163108250910     0.000000000000     1.007825032070

  Basis Set: 6-31G
    Blend: 6-31G
  Basis Set: (6-31G AUX)
    Blend: CC-PVDZ-JKFIT
  Basis Set: (6-31G AUX)
    Blend: CC-PVDZ-JKFIT
	 Reference Energy          =     -75.7577351204126757 [Eh]
	 Singles Energy            =      -0.0000000000000000 [Eh]
	 Same-Spin Energy          =      -0.0380097854962835 [Eh]
	 Opposite-Spin Energy      =      -0.1333613726764491 [Eh]
	 Correlation Energy        =      -0.1713711581727327 [Eh]
	 Total Energy              =     -75.9291062785854081 [Eh]

	 ================> DF-SCS-MP2 Energies <==================
	-----------------------------------------------------------
	 SCS Same-Spin Scale       =       0.3333333333333333 [-]
	 SCS Opposite-Spin Scale   =       1.2000000000000000 [-]
	 SCS Same-Spin Energy      =      -0.0126699284987612 [Eh]
	 SCS Opposite-Spin Energy  =      -0.1600336472117389 [Eh]
	 SCS Correlation Energy    =      -0.1727035757105001 [Eh]
	 SCS Total Energy          =     -75.9304386961231756 [Eh]
	-----------------------------------------------------------

  -Total Gradient:
     Atom            X                  Y                   Z
    ------   -----------------  -----------------  -----------------
       1       -0.001992835471     0.005315283679     0.000000000000
       2        0.035989975222    -0.098089261267    -0.000000000000
       3       -0.033997139752     0.092773977588     0.000000000000

*** Psi4 exiting successfully. Buy a developer a beer!
