                               Psi4 1.2a1.dev429

  ==> Input File <==

--------------------------------------------------------------------------
# density-fitted hartree fock energies and gradients with 6-31g
molecule o2 {
0 3
O 0.0000000000 0.0000000000 0.0000000000
O 0.0000000000 0.0000000000 1.3727272727
}

set basis 6-31g
set reference rohf

gradient('scf')
--------------------------------------------------------------------------

    Molecular point group: d2h
  Charge       = 0
  Multiplicity = 3
  Basis Set: 6-31G
    Blend: 6-31G
  Basis Set: (6-31G AUX)
    Blend: CC-PVDZ-JKFIT

    Orbital Energies (a.u.)
    -----------------------

    Doubly Occupied:

       1Ag   -20.774688     1B1u  -20.774194     2Ag    -1.554958
       2B1u   -1.156768     3Ag    -0.676365     1B2u   -0.658355
       1B3u   -0.658355

    Singly Occupied:

       1B3g   -0.284226     1B2g   -0.284226

  @DF-ROHF Final Energy:  -149.48933931126089

   => Energetics <=

    Nuclear Repulsion Energy =             24.6715731691895002
    One-Electron Energy =                -254.6159657501843583
    Two-Electron Energy =                  80.4550532697339804
    Total Energy =                       -149.4893393112608919
    Molecular point group: d2h

    Geometry (in Angstrom), charge = 0, multiplicity = 3:

       Center              X                  Y                   Z               Mass
    ------------   -----------------  -----------------  -----------------  -----------------
           O          0.000000000000     0.000000000000    -0.686363636350    15.994914619560
           O          0.000000000000     0.000000000000     0.686363636350    15.994914619560

  Basis Set: 6-31G
    Blend: 6-31G
  Basis Set: (6-31G AUX)
    Blend: CC-PVDZ-JKFIT

  -Total Gradient:
     Atom            X                  Y                   Z
    ------   -----------------  -----------------  -----------------
       1        0.000000000000    -0.000000000000    -0.183062488665
       2        0.000000000000     0.000000000000     0.183062488665

*** Psi4 exiting successfully. Buy a developer a beer!
