                               Psi4 1.2a1.dev429

  ==> Input File <==

--------------------------------------------------------------------------
# density-fitted hartree fock energies and gradients with 6-31g
molecule h20 {
0 1
O 0.0000000000 0.0000000000 0.0000000000
O 0.0000000000 0.0000000000 1.3727272727
}

set basis 6-31g

gradient('hf')
--------------------------------------------------------------------------

    Molecular point group: d2h
  Charge       = 0
  Multiplicity = 1
  Basis Set: 6-31G
    Blend: 6-31G
  Basis Set: (6-31G AUX)
    Blend: CC-PVDZ-JKFIT

    Orbital Energies (a.u.)
    -----------------------

    Doubly Occupied:

       1Ag   -20.783000     1B1u  -20.782501     2Ag    -1.558965
       2B1u   -1.160466     1B2u   -0.733422     3Ag    -0.680134
       1B3u   -0.592072     1B3g   -0.536820

  @DF-RHF Final Energy:  -149.42534780823351

   => Energetics <=

    Nuclear Repulsion Energy =             24.6715731691895002
    One-Electron Energy =                -254.5390797192272601
    Two-Electron Energy =                  80.4421587418042634
    Total Energy =                       -149.4253478082335107
    Molecular point group: d2h

    Geometry (in Angstrom), charge = 0, multiplicity = 1:

       Center              X                  Y                   Z               Mass
    ------------   -----------------  -----------------  -----------------  -----------------
           O          0.000000000000     0.000000000000    -0.686363636350    15.994914619560
           O          0.000000000000     0.000000000000     0.686363636350    15.994914619560

  Basis Set: 6-31G
    Blend: 6-31G
  Basis Set: (6-31G AUX)
    Blend: CC-PVDZ-JKFIT

  -Total Gradient:
     Atom            X                  Y                   Z
    ------   -----------------  -----------------  -----------------
       1        0.000000000000     0.000000000000    -0.175441915634
       2       -0.000000000000    -0.000000000000     0.175441915634

*** Psi4 exiting successfully. Buy a developer a beer!
