                               Psi4 1.3.1 release

  ==> Input File <==

--------------------------------------------------------------------------
# density fitted MP2
molecule h2o {
0 1
H 0.0000000000 0.0000000000 0.8500000000
H 0.0000000000 0.7361215932 -0.4250000000
O 0.0000000000 0.0000000000 0.0000000000
}

set basis 6-31g
energy('mp2')

--------------------------------------------------------------------------

    Molecular point group: c2v

    Geometry (in Angstrom), charge = 0, multiplicity = 1:

       Center              X                  Y                   Z               Mass
    ------------   -----------------  -----------------  -----------------  -----------------
         H            0.000000000000    -0.736121593213     0.377436178846     1.007825032230
         H           -0.000000000000     0.736121593213     0.377436178846     1.007825032230
         O           -0.000000000000     0.000000000000    -0.047563821147    15.994914619570

  Charge       = 0
  Multiplicity = 1
  Basis Set: 6-31G
    Blend: 6-31G
  Basis Set: (6-31G AUX)
    Blend: CC-PVDZ-JKFIT

    Orbital Energies [Eh]
    ---------------------

    Doubly Occupied:

       1A1   -20.529250     2A1    -1.402285     1B2    -0.806455
       3A1    -0.547532     1B1    -0.503310

  @DF-RHF Final Energy:   -75.95926364487919

   => Energetics <=

    Nuclear Repulsion Energy =             10.3204187950863826
    One-Electron Energy =                -124.9816999290629269
    Two-Electron Energy =                  38.7020174890973578
    Total Energy =                        -75.9592636448791865

  Dipole Moment: [D]
     X:     0.0000      Y:     0.0000      Z:     2.2709     Total:     2.2709

  Basis Set: (6-31G AUX)
    Blend: CC-PVDZ-RI
	 Reference Energy          =     -75.9592636448791865 [Eh]
	 Singles Energy            =      -0.0000000000000000 [Eh]
	 Same-Spin Energy          =      -0.0281904034639582 [Eh]
	 Opposite-Spin Energy      =      -0.0906475625491478 [Eh]
	 Correlation Energy        =      -0.1188379660131060 [Eh]
	 Total Energy              =     -76.0781016108922898 [Eh]

	 ================> DF-SCS-MP2 Energies <==================
	-----------------------------------------------------------
	 SCS Same-Spin Scale       =       0.3333333333333333 [-]
	 SCS Opposite-Spin Scale   =       1.2000000000000000 [-]
	 SCS Same-Spin Energy      =      -0.0093968011546527 [Eh]
	 SCS Opposite-Spin Energy  =      -0.1087770750589774 [Eh]
	 SCS Correlation Energy    =      -0.1181738762136301 [Eh]
	 SCS Total Energy          =     -76.0774375210928184 [Eh]
	-----------------------------------------------------------

*** Psi4 exiting successfully. Buy a developer a beer!
