                               Psi4 1.2a1.dev429

  ==> Input File <==

--------------------------------------------------------------------------
# density-fitted hartree fock energies and gradients with 6-31g
molecule h20 {
0 1
O 0.0000000000 0.0000000000 0.0000000000
H 0.0000000000 0.0000000000 0.8000000000
H 0.0000000000 0.6577848346 -0.2394141003
}

set basis 6-31g

gradient('hf')
--------------------------------------------------------------------------

    Molecular point group: cs
  Charge       = 0
  Multiplicity = 1
  Basis Set: 6-31G
    Blend: 6-31G
  Basis Set: (6-31G AUX)
    Blend: CC-PVDZ-JKFIT

    Orbital Energies (a.u.)
    -----------------------

    Doubly Occupied:

       1Ap   -20.519258     2Ap    -1.495503     3Ap    -0.858464
       4Ap    -0.580939     1App   -0.518791

  @DF-RHF Final Energy:   -75.82449400716287

   => Energetics <=

    Nuclear Repulsion Energy =             11.7697138732438678
    One-Electron Energy =                -127.2425068401347232
    Two-Electron Energy =                  39.6482989597279811
    Total Energy =                        -75.8244940071628690
    Molecular point group: cs

    Geometry (in Angstrom), charge = 0, multiplicity = 1:

       Center              X                  Y                   Z               Mass
    ------------   -----------------  -----------------  -----------------  -----------------
           O          0.036807953202     0.031368949962     0.000000000000    15.994914619560
           H          0.036807953202    -0.768631050038     0.000000000000     1.007825032070
           H         -0.620976881398     0.270783050262     0.000000000000     1.007825032070

  Basis Set: 6-31G
    Blend: 6-31G
  Basis Set: (6-31G AUX)
    Blend: CC-PVDZ-JKFIT

  -Total Gradient:
     Atom            X                  Y                   Z
    ------   -----------------  -----------------  -----------------
       1       -0.653500123538    -0.011049047968     0.000000000000
       2       -0.024542451553     0.287684972831     0.000000000000
       3        0.678042575091    -0.276635924863     0.000000000000

*** Psi4 exiting successfully. Buy a developer a beer!
