                               Psi4 1.2a1.dev429

  ==> Input File <==

--------------------------------------------------------------------------
# density-fitted hartree fock energies and gradients with 6-31g
molecule h2o {
0 1
O 0.0000000000 0.0000000000 0.0000000000
H 0.0000000000 0.0000000000 1.4000000000
H 0.0000000000 1.3000000000 0.0000000000
}

set basis 6-31g

gradient('mp2')
--------------------------------------------------------------------------

    Molecular point group: cs
  Charge       = 0
  Multiplicity = 1
  Basis Set: 6-31G
    Blend: 6-31G
  Basis Set: (6-31G AUX)
    Blend: CC-PVDZ-JKFIT

    Orbital Energies (a.u.)
    -----------------------

    Doubly Occupied:

       1Ap   -20.639445     2Ap    -1.244014     3Ap    -0.542754
       4Ap    -0.515328     1App   -0.505806

  @DF-RHF Final Energy:   -75.83807627578769

   => Energetics <=

    Nuclear Repulsion Energy =              6.5573289034215607
    One-Electron Energy =                -117.8961151668925851
    Two-Electron Energy =                  35.5007099876833436
    Total Energy =                        -75.8380762757876710
  Basis Set: (6-31G AUX)
    Blend: CC-PVDZ-RI
    Molecular point group: cs

    Geometry (in Angstrom), charge = 0, multiplicity = 1:

       Center              X                  Y                   Z               Mass
    ------------   -----------------  -----------------  -----------------  -----------------
           O          0.072744667627     0.078340411291     0.000000000000    15.994914619560
           H          0.072744667627    -1.321659588709     0.000000000000     1.007825032070
           H         -1.227255332373     0.078340411291     0.000000000000     1.007825032070

  Basis Set: 6-31G
    Blend: 6-31G
  Basis Set: (6-31G AUX)
    Blend: CC-PVDZ-JKFIT
  Basis Set: (6-31G AUX)
    Blend: CC-PVDZ-JKFIT
	 Reference Energy          =     -75.8380762757876852 [Eh]
	 Singles Energy            =      -0.0000000000000000 [Eh]
	 Same-Spin Energy          =      -0.0385409667810234 [Eh]
	 Opposite-Spin Energy      =      -0.1321764572204298 [Eh]
	 Correlation Energy        =      -0.1707174240014532 [Eh]
	 Total Energy              =     -76.0087936997891376 [Eh]

	 ================> DF-SCS-MP2 Energies <==================
	-----------------------------------------------------------
	 SCS Same-Spin Scale       =       0.3333333333333333 [-]
	 SCS Opposite-Spin Scale   =       1.2000000000000000 [-]
	 SCS Same-Spin Energy      =      -0.0128469889270078 [Eh]
	 SCS Opposite-Spin Energy  =      -0.1586117486645157 [Eh]
	 SCS Correlation Energy    =      -0.1714587375915236 [Eh]
	 SCS Total Energy          =     -76.0095350133792067 [Eh]
	-----------------------------------------------------------

  -Total Gradient:
     Atom            X                  Y                   Z
    ------   -----------------  -----------------  -----------------
       1        0.096224648939     0.098869479534     0.000000000000
       2       -0.002422635984    -0.096260483333    -0.000000000000
       3       -0.093802012955    -0.002608996201    -0.000000000000

*** Psi4 exiting successfully. Buy a developer a beer!
