                               Psi4 1.2a1.dev429

  ==> Input File <==

--------------------------------------------------------------------------
# density-fitted hartree fock energies and gradients with 6-31g
molecule h20 {
0 1
O 0.0000000000 0.0000000000 0.0000000000
H 0.0000000000 0.0000000000 0.9000000000
H 0.0000000000 0.6577848346 -0.2394141003
}

set basis 6-31g

gradient('hf')
--------------------------------------------------------------------------

    Molecular point group: cs
  Charge       = 0
  Multiplicity = 1
  Basis Set: 6-31G
    Blend: 6-31G
  Basis Set: (6-31G AUX)
    Blend: CC-PVDZ-JKFIT

    Orbital Energies (a.u.)
    -----------------------

    Doubly Occupied:

       1Ap   -20.527994     2Ap    -1.466160     3Ap    -0.819507
       4Ap    -0.572538     1App   -0.513443

  @DF-RHF Final Energy:   -75.85519596971699

   => Energetics <=

    Nuclear Repulsion Energy =             11.1537530346053675
    One-Electron Energy =                -126.2186140176946196
    Two-Electron Energy =                  39.2096650133722662
    Total Energy =                        -75.8551959697169877
    Molecular point group: cs

    Geometry (in Angstrom), charge = 0, multiplicity = 1:

       Center              X                  Y                   Z               Mass
    ------------   -----------------  -----------------  -----------------  -----------------
           O          0.036807953202     0.036964693625     0.000000000000    15.994914619560
           H          0.036807953202    -0.863035306375     0.000000000000     1.007825032070
           H         -0.620976881398     0.276378793925     0.000000000000     1.007825032070

  Basis Set: 6-31G
    Blend: 6-31G
  Basis Set: (6-31G AUX)
    Blend: CC-PVDZ-JKFIT

  -Total Gradient:
     Atom            X                  Y                   Z
    ------   -----------------  -----------------  -----------------
       1       -0.667817863599     0.208137505614     0.000000000000
       2       -0.015835389448     0.062358361292     0.000000000000
       3        0.683653253047    -0.270495866906     0.000000000000

*** Psi4 exiting successfully. Buy a developer a beer!
