                               Psi4 1.2a1.dev429

  ==> Input File <==

--------------------------------------------------------------------------
# density-fitted hartree fock energies and gradients with 6-31g
molecule h2o {
0 1
O 0.0000000000 0.0000000000 0.0000000000
H 0.0000000000 0.0000000000 1.1000000000
H 0.0000000000 0.5130302150 -1.4095389312
}

set basis 6-31g

gradient('mp2')
--------------------------------------------------------------------------

    Molecular point group: cs
  Charge       = 0
  Multiplicity = 1
  Basis Set: 6-31G
    Blend: 6-31G
  Basis Set: (6-31G AUX)
    Blend: CC-PVDZ-JKFIT

    Orbital Energies (a.u.)
    -----------------------

    Doubly Occupied:

       1Ap   -20.529354     2Ap    -1.192585     3Ap    -0.573846
       1App   -0.435664     4Ap    -0.422516

  @DF-RHF Final Energy:   -75.79747011272660

   => Energetics <=

    Nuclear Repulsion Energy =              6.8774334313262262
    One-Electron Energy =                -119.0418747997786824
    Two-Electron Energy =                  36.3669712557258578
    Total Energy =                        -75.7974701127266002
  Basis Set: (6-31G AUX)
    Blend: CC-PVDZ-RI
    Molecular point group: cs

    Geometry (in Angstrom), charge = 0, multiplicity = 1:

       Center              X                  Y                   Z               Mass
    ------------   -----------------  -----------------  -----------------  -----------------
           O          0.028707855748    -0.017321005129     0.000000000000    15.994914619560
           H          0.028707855748    -1.117321005129     0.000000000000     1.007825032070
           H         -0.484322359252     1.392217926071     0.000000000000     1.007825032070

  Basis Set: 6-31G
    Blend: 6-31G
  Basis Set: (6-31G AUX)
    Blend: CC-PVDZ-JKFIT
  Basis Set: (6-31G AUX)
    Blend: CC-PVDZ-JKFIT
	 Reference Energy          =     -75.7974701127266002 [Eh]
	 Singles Energy            =      -0.0000000000000000 [Eh]
	 Same-Spin Energy          =      -0.0350809763931082 [Eh]
	 Opposite-Spin Energy      =      -0.1154291588285264 [Eh]
	 Correlation Energy        =      -0.1505101352216346 [Eh]
	 Total Energy              =     -75.9479802479482373 [Eh]

	 ================> DF-SCS-MP2 Energies <==================
	-----------------------------------------------------------
	 SCS Same-Spin Scale       =       0.3333333333333333 [-]
	 SCS Opposite-Spin Scale   =       1.2000000000000000 [-]
	 SCS Same-Spin Energy      =      -0.0116936587977027 [Eh]
	 SCS Opposite-Spin Energy  =      -0.1385149905942317 [Eh]
	 SCS Correlation Energy    =      -0.1502086493919345 [Eh]
	 SCS Total Energy          =     -75.9476787621185281 [Eh]
	-----------------------------------------------------------

  -Total Gradient:
     Atom            X                  Y                   Z
    ------   -----------------  -----------------  -----------------
       1       -0.045081675055    -0.035291766730    -0.000000000000
       2        0.048857746181    -0.079839919726    -0.000000000000
       3       -0.003776071125     0.115131686456     0.000000000000

*** Psi4 exiting successfully. Buy a developer a beer!
