                               Psi4 1.3.1 release

  ==> Input File <==

--------------------------------------------------------------------------
# density fitted hartree fock
molecule h2o {
0 1
H 0.0000000000 0.0000000000 1.2000000000
H 0.0000000000 0.8227241336 -0.4750000000
O 0.0000000000 0.0000000000 0.0000000000
}

set basis 6-31g
energy('hf')

--------------------------------------------------------------------------

    Molecular point group: cs

    Geometry (in Angstrom), charge = 0, multiplicity = 1:

       Center              X                  Y                   Z               Mass
    ------------   -----------------  -----------------  -----------------  -----------------
         H            0.046037533581    -1.159430858433     0.000000000000     1.007825032230
         H           -0.776686600019     0.515569141567     0.000000000000     1.007825032230
         O            0.046037533581     0.040569141567     0.000000000000    15.994914619570

  Charge       = 0
  Multiplicity = 1
  Basis Set: 6-31G
    Blend: 6-31G
  Basis Set: (6-31G AUX)
    Blend: CC-PVDZ-JKFIT

    Orbital Energies [Eh]
    ---------------------

    Doubly Occupied:

       1Ap   -20.566055     2Ap    -1.299614     3Ap    -0.670966
       4Ap    -0.511274     1App   -0.487354

  @DF-RHF Final Energy:   -75.94180619484730

   => Energetics <=

    Nuclear Repulsion Energy =              8.2676441363043409
    One-Electron Energy =                -121.3483625923467741
    Two-Electron Energy =                  37.1389122611951308
    Total Energy =                        -75.9418061948473024

  Dipole Moment: [D]
     X:    -1.9526      Y:    -1.3379      Z:     0.0000     Total:     2.3670

*** Psi4 exiting successfully. Buy a developer a beer!
