                               Psi4 1.2a1.dev429

  ==> Input File <==

--------------------------------------------------------------------------
# density-fitted hartree fock energies and gradients with 6-31g
molecule o2 {
0 3
O 0.0000000000 0.0000000000 0.0000000000
O 0.0000000000 0.0000000000 0.8571428571
}

set basis 6-31g
set reference rohf

energy('scf')
--------------------------------------------------------------------------

    Molecular point group: d2h

    Geometry (in Angstrom), charge = 0, multiplicity = 3:

       Center              X                  Y                   Z               Mass
    ------------   -----------------  -----------------  -----------------  -----------------
           O          0.000000000000     0.000000000000    -0.428571428550    15.994914619560
           O          0.000000000000     0.000000000000     0.428571428550    15.994914619560

  Charge       = 0
  Multiplicity = 3
  Basis Set: 6-31G
    Blend: 6-31G
  Basis Set: (6-31G AUX)
    Blend: CC-PVDZ-JKFIT

    Orbital Energies (a.u.)
    -----------------------

    Doubly Occupied:

       1Ag   -20.711417     1B1u  -20.703044     2Ag    -2.148485
       2B1u   -0.962504     1B3u   -0.945541     1B2u   -0.945541
       3Ag    -0.823966

    Singly Occupied:

       1B2g   -0.018150     1B3g   -0.018150

  @DF-ROHF Final Energy:  -149.04689631618623

   => Energetics <=

    Nuclear Repulsion Energy =             39.5118982433622676
    One-Electron Energy =                -281.9421337988804339
    Two-Electron Energy =                  93.3833392393319315
    Total Energy =                       -149.0468963161862348
*** Psi4 exiting successfully. Buy a developer a beer!
