                               Psi4 1.2a1.dev429

  ==> Input File <==

--------------------------------------------------------------------------
# density-fitted hartree fock energies and gradients with 6-31g
molecule h20 {
0 1
O 0.0000000000 0.0000000000 0.0000000000
O 0.0000000000 0.0000000000 0.8282828283
}

set basis 6-31g

gradient('hf')
--------------------------------------------------------------------------

    Molecular point group: d2h
  Charge       = 0
  Multiplicity = 1
  Basis Set: 6-31G
    Blend: 6-31G
  Basis Set: (6-31G AUX)
    Blend: CC-PVDZ-JKFIT

    Orbital Energies (a.u.)
    -----------------------

    Doubly Occupied:

       1Ag   -20.731761     1B1u  -20.720650     2Ag    -2.202753
       1B3u   -1.024006     2B1u   -0.957476     1B2u   -0.943292
       3Ag    -0.839336     1B2g   -0.254108

  @DF-RHF Final Energy:  -148.83727002513820

   => Energetics <=

    Nuclear Repulsion Energy =             40.8886194336186506
    One-Electron Energy =                -284.1050114332200565
    Two-Electron Energy =                  94.3791219744632315
    Total Energy =                       -148.8372700251381673
    Molecular point group: d2h

    Geometry (in Angstrom), charge = 0, multiplicity = 1:

       Center              X                  Y                   Z               Mass
    ------------   -----------------  -----------------  -----------------  -----------------
           O          0.000000000000     0.000000000000    -0.414141414150    15.994914619560
           O          0.000000000000     0.000000000000     0.414141414150    15.994914619560

  Basis Set: 6-31G
    Blend: 6-31G
  Basis Set: (6-31G AUX)
    Blend: CC-PVDZ-JKFIT

  -Total Gradient:
     Atom            X                  Y                   Z
    ------   -----------------  -----------------  -----------------
       1        0.000000000000     0.000000000000     2.844130187188
       2        0.000000000000    -0.000000000000    -2.844130187188

*** Psi4 exiting successfully. Buy a developer a beer!
