                               Psi4 1.2a1.dev429

  ==> Input File <==

--------------------------------------------------------------------------
# density-fitted hartree fock energies and gradients with 6-31g
molecule o2 {
0 3
O 0.0000000000 0.0000000000 0.0000000000
O 0.0000000000 0.0000000000 0.8282828283
}

set basis 6-31g
set reference rohf

gradient('scf')
--------------------------------------------------------------------------

    Molecular point group: d2h
  Charge       = 0
  Multiplicity = 3
  Basis Set: 6-31G
    Blend: 6-31G
  Basis Set: (6-31G AUX)
    Blend: CC-PVDZ-JKFIT

    Orbital Energies (a.u.)
    -----------------------

    Doubly Occupied:

       1Ag   -20.718187     1B1u  -20.707110     2Ag    -2.193420
       1B3u   -0.977131     1B2u   -0.977131     2B1u   -0.951820
       3Ag    -0.833165

    Singly Occupied:

       1B2g    0.006275     1B3g    0.006275

  @DF-ROHF Final Energy:  -148.90639220174143

   => Energetics <=

    Nuclear Repulsion Energy =             40.8886194336186506
    One-Electron Energy =                -284.2315590664345564
    Two-Electron Energy =                  94.4365474310744446
    Total Energy =                       -148.9063922017414541
    Molecular point group: d2h

    Geometry (in Angstrom), charge = 0, multiplicity = 3:

       Center              X                  Y                   Z               Mass
    ------------   -----------------  -----------------  -----------------  -----------------
           O          0.000000000000     0.000000000000    -0.414141414150    15.994914619560
           O          0.000000000000     0.000000000000     0.414141414150    15.994914619560

  Basis Set: 6-31G
    Blend: 6-31G
  Basis Set: (6-31G AUX)
    Blend: CC-PVDZ-JKFIT

  -Total Gradient:
     Atom            X                  Y                   Z
    ------   -----------------  -----------------  -----------------
       1        0.000000000000     0.000000000000     2.850918008228
       2       -0.000000000000    -0.000000000000    -2.850918008228

*** Psi4 exiting successfully. Buy a developer a beer!
