                               Psi4 1.3.1 release

  ==> Input File <==

--------------------------------------------------------------------------
# density fitted hartree fock
molecule h2o {
0 1
H 0.0000000000 0.0000000000 1.1000000000
H 0.0000000000 0.9500000000 0.0000000000
O 0.0000000000 0.0000000000 0.0000000000
}

set basis 6-31g
energy('hf')

--------------------------------------------------------------------------

    Molecular point group: cs

    Geometry (in Angstrom), charge = 0, multiplicity = 1:

       Center              X                  Y                   Z               Mass
    ------------   -----------------  -----------------  -----------------  -----------------
         H            0.053159564812    -1.038446819692     0.000000000000     1.007825032230
         H           -0.896840435188     0.061553180308     0.000000000000     1.007825032230
         O            0.053159564812     0.061553180308     0.000000000000    15.994914619570

  Charge       = 0
  Multiplicity = 1
  Basis Set: 6-31G
    Blend: 6-31G
  Basis Set: (6-31G AUX)
    Blend: CC-PVDZ-JKFIT

    Orbital Energies [Eh]
    ---------------------

    Doubly Occupied:

       1Ap   -20.583908     2Ap    -1.343544     3Ap    -0.653999
       4Ap    -0.574836     1App   -0.506346

  @DF-RHF Final Energy:   -75.95886493769454

   => Energetics <=

    Nuclear Repulsion Energy =              8.6688756639225417
    One-Electron Energy =                -121.9302096891044016
    Two-Electron Energy =                  37.3024690874873244
    Total Energy =                        -75.9588649376945426

  Dipole Moment: [D]
     X:    -2.0407      Y:    -2.0094      Z:     0.0000     Total:     2.8639

*** Psi4 exiting successfully. Buy a developer a beer!
