                               Psi4 1.2a1.dev429

  ==> Input File <==

--------------------------------------------------------------------------
# density-fitted hartree fock energies and gradients with 6-31g
molecule h2o {
0 1
O 0.0000000000 0.0000000000 0.0000000000
H 0.0000000000 0.0000000000 0.8000000000
H 0.0000000000 1.1258330249 -0.6500000000
}

set basis 6-31g

gradient('mp2')
--------------------------------------------------------------------------

    Molecular point group: cs
  Charge       = 0
  Multiplicity = 1
  Basis Set: 6-31G
    Blend: 6-31G
  Basis Set: (6-31G AUX)
    Blend: CC-PVDZ-JKFIT

    Orbital Energies (a.u.)
    -----------------------

    Doubly Occupied:

       1Ap   -20.556132     2Ap    -1.349899     3Ap    -0.692328
       4Ap    -0.506917     1App   -0.491053

  @DF-RHF Final Energy:   -75.88034024228716

   => Energetics <=

    Nuclear Repulsion Energy =              8.8365084093612207
    One-Electron Energy =                -122.2410391261395262
    Two-Electron Energy =                  37.5241904744911494
    Total Energy =                        -75.8803402422871613
  Basis Set: (6-31G AUX)
    Blend: CC-PVDZ-RI
    Molecular point group: cs

    Geometry (in Angstrom), charge = 0, multiplicity = 1:

       Center              X                  Y                   Z               Mass
    ------------   -----------------  -----------------  -----------------  -----------------
           O          0.062998730154     0.008393615495     0.000000000000    15.994914619560
           H          0.062998730154    -0.791606384505     0.000000000000     1.007825032070
           H         -1.062834294746     0.658393615495     0.000000000000     1.007825032070

  Basis Set: 6-31G
    Blend: 6-31G
  Basis Set: (6-31G AUX)
    Blend: CC-PVDZ-JKFIT
  Basis Set: (6-31G AUX)
    Blend: CC-PVDZ-JKFIT
	 Reference Energy          =     -75.8803402422871613 [Eh]
	 Singles Energy            =      -0.0000000000000000 [Eh]
	 Same-Spin Energy          =      -0.0310463767160282 [Eh]
	 Opposite-Spin Energy      =      -0.1034662104411346 [Eh]
	 Correlation Energy        =      -0.1345125871571628 [Eh]
	 Total Energy              =     -76.0148528294443224 [Eh]

	 ================> DF-SCS-MP2 Energies <==================
	-----------------------------------------------------------
	 SCS Same-Spin Scale       =       0.3333333333333333 [-]
	 SCS Opposite-Spin Scale   =       1.2000000000000000 [-]
	 SCS Same-Spin Energy      =      -0.0103487922386761 [Eh]
	 SCS Opposite-Spin Energy  =      -0.1241594525293615 [Eh]
	 SCS Correlation Energy    =      -0.1345082447680376 [Eh]
	 SCS Total Energy          =     -76.0148484870552039 [Eh]
	-----------------------------------------------------------

  -Total Gradient:
     Atom            X                  Y                   Z
    ------   -----------------  -----------------  -----------------
       1        0.070078145182    -0.399583579991    -0.000000000000
       2        0.026784428615     0.324627336421     0.000000000000
       3       -0.096862573798     0.074956243570    -0.000000000000

*** Psi4 exiting successfully. Buy a developer a beer!
