                               Psi4 1.2a1.dev429

  ==> Input File <==

--------------------------------------------------------------------------
# density-fitted hartree fock energies and gradients with 6-31g
molecule h20 {
0 1
O 0.0000000000 0.0000000000 0.0000000000
H 0.0000000000 0.0000000000 1.2000000000
H 0.0000000000 0.8426488874 -0.7070663707
}

set basis 6-31g

gradient('hf')
--------------------------------------------------------------------------

    Molecular point group: cs
  Charge       = 0
  Multiplicity = 1
  Basis Set: 6-31G
    Blend: 6-31G
  Basis Set: (6-31G AUX)
    Blend: CC-PVDZ-JKFIT

    Orbital Energies (a.u.)
    -----------------------

    Doubly Occupied:

       1Ap   -20.568091     2Ap    -1.253762     3Ap    -0.636872
       4Ap    -0.486693     1App   -0.475998

  @DF-RHF Final Energy:   -75.91565508796985

   => Energetics <=

    Nuclear Repulsion Energy =              7.6302193495515933
    One-Electron Energy =                -120.2489190565496813
    Two-Electron Energy =                  36.7030446190282333
    Total Energy =                        -75.9156550879698528
    Molecular point group: cs

    Geometry (in Angstrom), charge = 0, multiplicity = 1:

       Center              X                  Y                   Z               Mass
    ------------   -----------------  -----------------  -----------------  -----------------
           O          0.047152471723     0.027583302327     0.000000000000    15.994914619560
           H          0.047152471723    -1.172416697673     0.000000000000     1.007825032070
           H         -0.795496415677     0.734649673027     0.000000000000     1.007825032070

  Basis Set: 6-31G
    Blend: 6-31G
  Basis Set: (6-31G AUX)
    Blend: CC-PVDZ-JKFIT

  -Total Gradient:
     Atom            X                  Y                   Z
    ------   -----------------  -----------------  -----------------
       1        0.033421841323     0.041224886030     0.000000000000
       2        0.027187719207    -0.130799850638     0.000000000000
       3       -0.060609560531     0.089574964608     0.000000000000

*** Psi4 exiting successfully. Buy a developer a beer!
