                               Psi4 1.2a1.dev429

  ==> Input File <==

--------------------------------------------------------------------------
# density-fitted hartree fock energies and gradients with 6-31g
molecule h20 {
0 1
O 0.0000000000 0.0000000000 0.0000000000
O 0.0000000000 0.0000000000 1.1888888889
}

set basis 6-31g

gradient('hf')
--------------------------------------------------------------------------

    Molecular point group: d2h
  Charge       = 0
  Multiplicity = 1
  Basis Set: 6-31G
    Blend: 6-31G
  Basis Set: (6-31G AUX)
    Blend: CC-PVDZ-JKFIT

    Orbital Energies (a.u.)
    -----------------------

    Doubly Occupied:

       1Ag   -20.754502     1B1u  -20.753592     2Ag    -1.713681
       2B1u   -1.098177     1B3u   -0.790410     3Ag    -0.733359
       1B2u   -0.666120     1B2g   -0.480799

  @DF-RHF Final Energy:  -149.46154437785802

   => Energetics <=

    Nuclear Repulsion Energy =             28.4865487985973189
    One-Electron Energy =                -261.9149070830715118
    Two-Electron Energy =                  83.9668139066161956
    Total Energy =                       -149.4615443778579902
    Molecular point group: d2h

    Geometry (in Angstrom), charge = 0, multiplicity = 1:

       Center              X                  Y                   Z               Mass
    ------------   -----------------  -----------------  -----------------  -----------------
           O          0.000000000000     0.000000000000    -0.594444444450    15.994914619560
           O          0.000000000000     0.000000000000     0.594444444450    15.994914619560

  Basis Set: 6-31G
    Blend: 6-31G
  Basis Set: (6-31G AUX)
    Blend: CC-PVDZ-JKFIT

  -Total Gradient:
     Atom            X                  Y                   Z
    ------   -----------------  -----------------  -----------------
       1        0.000000000000    -0.000000000000     0.008055849518
       2        0.000000000000     0.000000000000    -0.008055849518

*** Psi4 exiting successfully. Buy a developer a beer!
