                               Psi4 1.2a1.dev429

  ==> Input File <==

--------------------------------------------------------------------------
# density-fitted hartree fock energies and gradients with 6-31g
molecule o2 {
0 3
O 0.0000000000 0.0000000000 0.0000000000
O 0.0000000000 0.0000000000 1.1888888889
}

set basis 6-31g
set reference rohf

gradient('scf')
--------------------------------------------------------------------------

    Molecular point group: d2h
  Charge       = 0
  Multiplicity = 3
  Basis Set: 6-31G
    Blend: 6-31G
  Basis Set: (6-31G AUX)
    Blend: CC-PVDZ-JKFIT

    Orbital Energies (a.u.)
    -----------------------

    Doubly Occupied:

       1Ag   -20.745146     1B1u  -20.744245     2Ag    -1.708603
       2B1u   -1.094105     3Ag    -0.729073     1B3u   -0.723630
       1B2u   -0.723630

    Singly Occupied:

       1B2g   -0.221571     1B3g   -0.221571

  @DF-ROHF Final Energy:  -149.52832713128538

   => Energetics <=

    Nuclear Repulsion Energy =             28.4865487985973189
    One-Electron Energy =                -262.0011039147661904
    Two-Electron Energy =                  83.9862279848835129
    Total Energy =                       -149.5283271312853799
    Molecular point group: d2h

    Geometry (in Angstrom), charge = 0, multiplicity = 3:

       Center              X                  Y                   Z               Mass
    ------------   -----------------  -----------------  -----------------  -----------------
           O          0.000000000000     0.000000000000    -0.594444444450    15.994914619560
           O          0.000000000000     0.000000000000     0.594444444450    15.994914619560

  Basis Set: 6-31G
    Blend: 6-31G
  Basis Set: (6-31G AUX)
    Blend: CC-PVDZ-JKFIT

  -Total Gradient:
     Atom            X                  Y                   Z
    ------   -----------------  -----------------  -----------------
       1        0.000000000000    -0.000000000000    -0.000024244636
       2        0.000000000000     0.000000000000     0.000024244636

*** Psi4 exiting successfully. Buy a developer a beer!
