                               Psi4 1.3.1 release

  ==> Input File <==

--------------------------------------------------------------------------
# density fitted hartree fock
molecule h2o {
0 1
H 0.0000000000 0.0000000000 1.0500000000
H 0.0000000000 0.9009688679 -0.4338837391
O 0.0000000000 0.0000000000 0.0000000000
}

set basis 6-31g
energy('hf')

--------------------------------------------------------------------------

    Molecular point group: cs

    Geometry (in Angstrom), charge = 0, multiplicity = 1:

       Center              X                  Y                   Z               Mass
    ------------   -----------------  -----------------  -----------------  -----------------
         H            0.050415908344    -1.015523713365     0.000000000000     1.007825032230
         H           -0.850552959556     0.468360025735     0.000000000000     1.007825032230
         O            0.050415908344     0.034476286635     0.000000000000    15.994914619570

  Charge       = 0
  Multiplicity = 1
  Basis Set: 6-31G
    Blend: 6-31G
  Basis Set: (6-31G AUX)
    Blend: CC-PVDZ-JKFIT

    Orbital Energies [Eh]
    ---------------------

    Doubly Occupied:

       1Ap   -20.563734     2Ap    -1.312286     3Ap    -0.689038
       4Ap    -0.529351     1App   -0.491637

  @DF-RHF Final Energy:   -75.97338466569255

   => Energetics <=

    Nuclear Repulsion Energy =              8.5700716650299320
    One-Electron Energy =                -121.9148122128233922
    Two-Electron Energy =                  37.3713558821009144
    Total Energy =                        -75.9733846656925493

  Dipole Moment: [D]
     X:    -2.0511      Y:    -1.3295      Z:     0.0000     Total:     2.4443

*** Psi4 exiting successfully. Buy a developer a beer!
