                               Psi4 1.2a1.dev429

  ==> Input File <==

--------------------------------------------------------------------------
# density-fitted hartree fock energies and gradients with 6-31g
molecule h2o {
0 1
O 0.0000000000 0.0000000000 0.0000000000
H 0.0000000000 0.0000000000 0.8000000000
H 0.0000000000 0.8426488874 -0.7070663707
}

set basis 6-31g

gradient('mp2')
--------------------------------------------------------------------------

    Molecular point group: cs
  Charge       = 0
  Multiplicity = 1
  Basis Set: 6-31G
    Blend: 6-31G
  Basis Set: (6-31G AUX)
    Blend: CC-PVDZ-JKFIT

    Orbital Energies (a.u.)
    -----------------------

    Doubly Occupied:

       1Ap   -20.534788     2Ap    -1.356469     3Ap    -0.749200
       4Ap    -0.512550     1App   -0.489174

  @DF-RHF Final Energy:   -75.92427841224398

   => Energetics <=

    Nuclear Repulsion Energy =              9.4468105690971882
    One-Electron Energy =                -123.4578129750936597
    Two-Electron Energy =                  38.0867239937524786
    Total Energy =                        -75.9242784122439787
  Basis Set: (6-31G AUX)
    Blend: CC-PVDZ-RI
    Molecular point group: cs

    Geometry (in Angstrom), charge = 0, multiplicity = 1:

       Center              X                  Y                   Z               Mass
    ------------   -----------------  -----------------  -----------------  -----------------
           O          0.047152471723     0.005200327673     0.000000000000    15.994914619560
           H          0.047152471723    -0.794799672327     0.000000000000     1.007825032070
           H         -0.795496415677     0.712266698373     0.000000000000     1.007825032070

  Basis Set: 6-31G
    Blend: 6-31G
  Basis Set: (6-31G AUX)
    Blend: CC-PVDZ-JKFIT
  Basis Set: (6-31G AUX)
    Blend: CC-PVDZ-JKFIT
	 Reference Energy          =     -75.9242784122439787 [Eh]
	 Singles Energy            =      -0.0000000000000000 [Eh]
	 Same-Spin Energy          =      -0.0299972222171657 [Eh]
	 Opposite-Spin Energy      =      -0.0964878532042594 [Eh]
	 Correlation Energy        =      -0.1264850754214251 [Eh]
	 Total Energy              =     -76.0507634876654066 [Eh]

	 ================> DF-SCS-MP2 Energies <==================
	-----------------------------------------------------------
	 SCS Same-Spin Scale       =       0.3333333333333333 [-]
	 SCS Opposite-Spin Scale   =       1.2000000000000000 [-]
	 SCS Same-Spin Energy      =      -0.0099990740723886 [Eh]
	 SCS Opposite-Spin Energy  =      -0.1157854238451113 [Eh]
	 SCS Correlation Energy    =      -0.1257844979174998 [Eh]
	 SCS Total Energy          =     -76.0500629101614720 [Eh]
	-----------------------------------------------------------

  -Total Gradient:
     Atom            X                  Y                   Z
    ------   -----------------  -----------------  -----------------
       1        0.030513553084    -0.392344912133     0.000000000000
       2        0.030733650812     0.311774273729    -0.000000000000
       3       -0.061247203896     0.080570638404    -0.000000000000

*** Psi4 exiting successfully. Buy a developer a beer!
