                               Psi4 1.2a1.dev429

  ==> Input File <==

--------------------------------------------------------------------------
# density-fitted hartree fock energies and gradients with 6-31g
molecule h2o {
0 1
O 0.0000000000 0.0000000000 0.0000000000
H 0.0000000000 0.0000000000 1.3000000000
H 0.0000000000 1.0336618829 -0.3762221577
}

set basis 6-31g

gradient('mp2')
--------------------------------------------------------------------------

    Molecular point group: cs
  Charge       = 0
  Multiplicity = 1
  Basis Set: 6-31G
    Blend: 6-31G
  Basis Set: (6-31G AUX)
    Blend: CC-PVDZ-JKFIT

    Orbital Energies (a.u.)
    -----------------------

    Doubly Occupied:

       1Ap   -20.599001     2Ap    -1.263827     3Ap    -0.607570
       4Ap    -0.510357     1App   -0.492274

  @DF-RHF Final Energy:   -75.90595249274843

   => Energetics <=

    Nuclear Repulsion Energy =              7.3737487842051044
    One-Electron Energy =                -119.6133440333690743
    Two-Electron Energy =                  36.3336427564155429
    Total Energy =                        -75.9059524927484262
  Basis Set: (6-31G AUX)
    Blend: CC-PVDZ-RI
    Molecular point group: cs

    Geometry (in Angstrom), charge = 0, multiplicity = 1:

       Center              X                  Y                   Z               Mass
    ------------   -----------------  -----------------  -----------------  -----------------
           O          0.057841069316     0.051692240076     0.000000000000    15.994914619560
           H          0.057841069316    -1.248307759924     0.000000000000     1.007825032070
           H         -0.975820813584     0.427914397776     0.000000000000     1.007825032070

  Basis Set: 6-31G
    Blend: 6-31G
  Basis Set: (6-31G AUX)
    Blend: CC-PVDZ-JKFIT
  Basis Set: (6-31G AUX)
    Blend: CC-PVDZ-JKFIT
	 Reference Energy          =     -75.9059524927484262 [Eh]
	 Singles Energy            =      -0.0000000000000000 [Eh]
	 Same-Spin Energy          =      -0.0345717826975466 [Eh]
	 Opposite-Spin Energy      =      -0.1161398454381998 [Eh]
	 Correlation Energy        =      -0.1507116281357464 [Eh]
	 Total Energy              =     -76.0566641208841787 [Eh]

	 ================> DF-SCS-MP2 Energies <==================
	-----------------------------------------------------------
	 SCS Same-Spin Scale       =       0.3333333333333333 [-]
	 SCS Opposite-Spin Scale   =       1.2000000000000000 [-]
	 SCS Same-Spin Energy      =      -0.0115239275658489 [Eh]
	 SCS Opposite-Spin Energy  =      -0.1393678145258398 [Eh]
	 SCS Correlation Energy    =      -0.1508917420916887 [Eh]
	 SCS Total Energy          =     -76.0568442348401135 [Eh]
	-----------------------------------------------------------

  -Total Gradient:
     Atom            X                  Y                   Z
    ------   -----------------  -----------------  -----------------
       1        0.047758697537     0.070071852497    -0.000000000000
       2        0.012524799316    -0.107765254672     0.000000000000
       3       -0.060283496853     0.037693402176     0.000000000000

*** Psi4 exiting successfully. Buy a developer a beer!
