                               Psi4 1.2a1.dev429

  ==> Input File <==

--------------------------------------------------------------------------
# density-fitted hartree fock energies and gradients with 6-31g
molecule h20 {
0 1
O 0.0000000000 0.0000000000 0.0000000000
H 0.0000000000 0.0000000000 1.0000000000
H 0.0000000000 0.6928203230 -0.4000000000
}

set basis 6-31g

gradient('hf')
--------------------------------------------------------------------------

    Molecular point group: cs
  Charge       = 0
  Multiplicity = 1
  Basis Set: 6-31G
    Blend: 6-31G
  Basis Set: (6-31G AUX)
    Blend: CC-PVDZ-JKFIT

    Orbital Energies (a.u.)
    -----------------------

    Doubly Occupied:

       1Ap   -20.537145     2Ap    -1.383271     3Ap    -0.770325
       4Ap    -0.538761     1App   -0.498845

  @DF-RHF Final Energy:   -75.94722414137708

   => Energetics <=

    Nuclear Repulsion Energy =              9.8639607483777905
    One-Electron Energy =                -124.1656750508213634
    Two-Electron Energy =                  38.3544901610664866
    Total Energy =                        -75.9472241413770917
    Molecular point group: cs

    Geometry (in Angstrom), charge = 0, multiplicity = 1:

       Center              X                  Y                   Z               Mass
    ------------   -----------------  -----------------  -----------------  -----------------
           O          0.038768449325     0.033574461982     0.000000000000    15.994914619560
           H          0.038768449325    -0.966425538018     0.000000000000     1.007825032070
           H         -0.654051873675     0.433574461982     0.000000000000     1.007825032070

  Basis Set: 6-31G
    Blend: 6-31G
  Basis Set: (6-31G AUX)
    Blend: CC-PVDZ-JKFIT

  -Total Gradient:
     Atom            X                  Y                   Z
    ------   -----------------  -----------------  -----------------
       1       -0.265851330595     0.191708040079     0.000000000000
       2        0.009377446307    -0.057167952339     0.000000000000
       3        0.256473884288    -0.134540087741     0.000000000000

*** Psi4 exiting successfully. Buy a developer a beer!
