                               Psi4 1.2a1.dev429

  ==> Input File <==

--------------------------------------------------------------------------
# density-fitted hartree fock energies and gradients with 6-31g
molecule h2o {
0 1
O 0.0000000000 0.0000000000 0.0000000000
H 0.0000000000 0.0000000000 1.2000000000
H 0.0000000000 0.0000000000 -1.5000000000
}

set basis 6-31g

gradient('mp2')
--------------------------------------------------------------------------

    Molecular point group: c2v
  Charge       = 0
  Multiplicity = 1
  Basis Set: 6-31G
    Blend: 6-31G
  Basis Set: (6-31G AUX)
    Blend: CC-PVDZ-JKFIT

    Orbital Energies (a.u.)
    -----------------------

    Doubly Occupied:

       1A1   -20.501609     2A1    -1.151085     3A1    -0.535862
       1B2    -0.409298     1B1    -0.409298

  @DF-RHF Final Energy:   -75.76003949487354

   => Energetics <=

    Nuclear Repulsion Energy =              6.5461180618170376
    One-Electron Energy =                -118.5980100767308727
    Two-Electron Energy =                  36.2918525200402939
    Total Energy =                        -75.7600394948735385
  Basis Set: (6-31G AUX)
    Blend: CC-PVDZ-RI
    Molecular point group: c2v

    Geometry (in Angstrom), charge = 0, multiplicity = 1:

       Center              X                  Y                   Z               Mass
    ------------   -----------------  -----------------  -----------------  -----------------
           O          0.000000000000     0.000000000000     0.016787230991    15.994914619560
           H          0.000000000000     0.000000000000     1.216787230991     1.007825032070
           H          0.000000000000     0.000000000000    -1.483212769009     1.007825032070

  Basis Set: 6-31G
    Blend: 6-31G
  Basis Set: (6-31G AUX)
    Blend: CC-PVDZ-JKFIT
  Basis Set: (6-31G AUX)
    Blend: CC-PVDZ-JKFIT
	 Reference Energy          =     -75.7600394948735385 [Eh]
	 Singles Energy            =      -0.0000000000000000 [Eh]
	 Same-Spin Energy          =      -0.0345206583683102 [Eh]
	 Opposite-Spin Energy      =      -0.1102709428664602 [Eh]
	 Correlation Energy        =      -0.1447916012347704 [Eh]
	 Total Energy              =     -75.9048310961083104 [Eh]

	 ================> DF-SCS-MP2 Energies <==================
	-----------------------------------------------------------
	 SCS Same-Spin Scale       =       0.3333333333333333 [-]
	 SCS Opposite-Spin Scale   =       1.2000000000000000 [-]
	 SCS Same-Spin Energy      =      -0.0115068861227701 [Eh]
	 SCS Opposite-Spin Energy  =      -0.1323251314397523 [Eh]
	 SCS Correlation Energy    =      -0.1438320175625223 [Eh]
	 SCS Total Energy          =     -75.9038715124360550 [Eh]
	-----------------------------------------------------------

  -Total Gradient:
     Atom            X                  Y                   Z
    ------   -----------------  -----------------  -----------------
       1        0.000000000000    -0.000000000000     0.013701268846
       2       -0.000000000000     0.000000000000     0.114917097972
       3       -0.000000000000    -0.000000000000    -0.128618366818

*** Psi4 exiting successfully. Buy a developer a beer!
