                               Psi4 1.2a1.dev429

  ==> Input File <==

--------------------------------------------------------------------------
# density-fitted hartree fock energies and gradients with 6-31g
molecule h2o {
0 1
O 0.0000000000 0.0000000000 0.0000000000
H 0.0000000000 0.0000000000 1.4000000000
H 0.0000000000 0.9396926208 -0.3420201433
}

set basis 6-31g

gradient('mp2')
--------------------------------------------------------------------------

    Molecular point group: cs
  Charge       = 0
  Multiplicity = 1
  Basis Set: 6-31G
    Blend: 6-31G
  Basis Set: (6-31G AUX)
    Blend: CC-PVDZ-JKFIT

    Orbital Energies (a.u.)
    -----------------------

    Doubly Occupied:

       1Ap   -20.594789     2Ap    -1.280343     3Ap    -0.622545
       4Ap    -0.499774     1App   -0.493520

  @DF-RHF Final Energy:   -75.89416746688751

   => Energetics <=

    Nuclear Repulsion Energy =              7.5246422158503821
    One-Electron Energy =                -119.8556775450224592
    Two-Electron Energy =                  36.4368678622845721
    Total Energy =                        -75.8941674668875095
  Basis Set: (6-31G AUX)
    Blend: CC-PVDZ-RI
    Molecular point group: cs

    Geometry (in Angstrom), charge = 0, multiplicity = 1:

       Center              X                  Y                   Z               Mass
    ------------   -----------------  -----------------  -----------------  -----------------
           O          0.052582790286     0.059201840794     0.000000000000    15.994914619560
           H          0.052582790286    -1.340798159206     0.000000000000     1.007825032070
           H         -0.887109830514     0.401221984094     0.000000000000     1.007825032070

  Basis Set: 6-31G
    Blend: 6-31G
  Basis Set: (6-31G AUX)
    Blend: CC-PVDZ-JKFIT
  Basis Set: (6-31G AUX)
    Blend: CC-PVDZ-JKFIT
	 Reference Energy          =     -75.8941674668875095 [Eh]
	 Singles Energy            =      -0.0000000000000000 [Eh]
	 Same-Spin Energy          =      -0.0340913092751427 [Eh]
	 Opposite-Spin Energy      =      -0.1160333792301752 [Eh]
	 Correlation Energy        =      -0.1501246885053179 [Eh]
	 Total Energy              =     -76.0442921553928244 [Eh]

	 ================> DF-SCS-MP2 Energies <==================
	-----------------------------------------------------------
	 SCS Same-Spin Scale       =       0.3333333333333333 [-]
	 SCS Opposite-Spin Scale   =       1.2000000000000000 [-]
	 SCS Same-Spin Energy      =      -0.0113637697583809 [Eh]
	 SCS Opposite-Spin Energy  =      -0.1392400550762103 [Eh]
	 SCS Correlation Energy    =      -0.1506038248345912 [Eh]
	 SCS Total Energy          =     -76.0447712917220997 [Eh]
	-----------------------------------------------------------

  -Total Gradient:
     Atom            X                  Y                   Z
    ------   -----------------  -----------------  -----------------
       1       -0.006621554111     0.090740507408     0.000000000000
       2        0.011451250997    -0.109559013832     0.000000000000
       3       -0.004829696886     0.018818506424    -0.000000000000

*** Psi4 exiting successfully. Buy a developer a beer!
