                               Psi4 1.2a1.dev429

  ==> Input File <==

--------------------------------------------------------------------------
# density-fitted hartree fock energies and gradients with 6-31g
molecule h20 {
0 1
O 0.0000000000 0.0000000000 0.0000000000
H 0.0000000000 0.0000000000 0.8000000000
H 0.0000000000 0.4000000000 -0.6928203230
}

set basis 6-31g

gradient('hf')
--------------------------------------------------------------------------

    Molecular point group: c2v
  Charge       = 0
  Multiplicity = 1
  Basis Set: 6-31G
    Blend: 6-31G
  Basis Set: (6-31G AUX)
    Blend: CC-PVDZ-JKFIT

    Orbital Energies (a.u.)
    -----------------------

    Doubly Occupied:

       1A1   -20.504328     2A1    -1.402750     1B2    -0.887037
       3A1    -0.512571     1B1    -0.500787

  @DF-RHF Final Energy:   -75.90470841669728

   => Energetics <=

    Nuclear Repulsion Energy =             10.9259470215069232
    One-Electron Energy =                -126.0463640751748926
    Two-Electron Energy =                  39.2157086369706889
    Total Energy =                        -75.9047084166972752
    Molecular point group: c2v

    Geometry (in Angstrom), charge = 0, multiplicity = 1:

       Center              X                  Y                   Z               Mass
    ------------   -----------------  -----------------  -----------------  -----------------
           O         -0.000000000000     0.000000000000    -0.023172560507    15.994914619560
           H          0.000000000000    -0.772740661018     0.183882675579     1.007825032070
           H         -0.000000000000     0.772740661018     0.183882675579     1.007825032070

  Basis Set: 6-31G
    Blend: 6-31G
  Basis Set: (6-31G AUX)
    Blend: CC-PVDZ-JKFIT

  -Total Gradient:
     Atom            X                  Y                   Z
    ------   -----------------  -----------------  -----------------
       1       -0.000000000000     0.000000000000     0.185149776867
       2       -0.000000000000     0.248769573584    -0.092574888434
       3        0.000000000000    -0.248769573584    -0.092574888434

*** Psi4 exiting successfully. Buy a developer a beer!
