                               Psi4 1.2a1.dev429

  ==> Input File <==

--------------------------------------------------------------------------
# density-fitted hartree fock energies and gradients with 6-31g
molecule o2 {
0 3
O 0.0000000000 0.0000000000 0.0000000000
O 0.0000000000 0.0000000000 0.9131313131
}

set basis 6-31g
set reference rohf

gradient('scf')
--------------------------------------------------------------------------

    Molecular point group: d2h
  Charge       = 0
  Multiplicity = 3
  Basis Set: 6-31G
    Blend: 6-31G
  Basis Set: (6-31G AUX)
    Blend: CC-PVDZ-JKFIT

    Orbital Energies (a.u.)
    -----------------------

    Doubly Occupied:

       1Ag   -20.706792     1B1u  -20.701741     2Ag    -2.062360
       2B1u   -0.984159     1B3u   -0.892061     1B2u   -0.892061
       3Ag    -0.807257

    Singly Occupied:

       1B3g   -0.062396     1B2g   -0.062396

  @DF-ROHF Final Energy:  -149.24747753651477

   => Energetics <=

    Nuclear Repulsion Energy =             37.0892344440399953
    One-Electron Energy =                -277.7943109377289375
    Two-Electron Energy =                  91.4575989571741843
    Total Energy =                       -149.2474775365147650
    Molecular point group: d2h

    Geometry (in Angstrom), charge = 0, multiplicity = 3:

       Center              X                  Y                   Z               Mass
    ------------   -----------------  -----------------  -----------------  -----------------
           O          0.000000000000     0.000000000000    -0.456565656550    15.994914619560
           O          0.000000000000     0.000000000000     0.456565656550    15.994914619560

  Basis Set: 6-31G
    Blend: 6-31G
  Basis Set: (6-31G AUX)
    Blend: CC-PVDZ-JKFIT

  -Total Gradient:
     Atom            X                  Y                   Z
    ------   -----------------  -----------------  -----------------
       1       -0.000000000000     0.000000000000     1.520434192327
       2        0.000000000000     0.000000000000    -1.520434192327

*** Psi4 exiting successfully. Buy a developer a beer!
