                               Psi4 1.2a1.dev429

  ==> Input File <==

--------------------------------------------------------------------------
# density-fitted hartree fock energies and gradients with 6-31g
molecule h20 {
0 1
O 0.0000000000 0.0000000000 0.0000000000
O 0.0000000000 0.0000000000 0.9131313131
}

set basis 6-31g

gradient('hf')
--------------------------------------------------------------------------

    Molecular point group: d2h
  Charge       = 0
  Multiplicity = 1
  Basis Set: 6-31G
    Blend: 6-31G
  Basis Set: (6-31G AUX)
    Blend: CC-PVDZ-JKFIT

    Orbital Energies (a.u.)
    -----------------------

    Doubly Occupied:

       1Ag   -20.719230     1B1u  -20.714153     2Ag    -2.070513
       2B1u   -0.989353     1B3u   -0.944544     1B2u   -0.851262
       3Ag    -0.812900     1B2g   -0.325443

  @DF-RHF Final Energy:  -149.17785298229163

   => Energetics <=

    Nuclear Repulsion Energy =             37.0892344440399953
    One-Electron Energy =                -277.6793791248416028
    Two-Electron Energy =                  91.4122916985099749
    Total Energy =                       -149.1778529822916539
    Molecular point group: d2h

    Geometry (in Angstrom), charge = 0, multiplicity = 1:

       Center              X                  Y                   Z               Mass
    ------------   -----------------  -----------------  -----------------  -----------------
           O          0.000000000000     0.000000000000    -0.456565656550    15.994914619560
           O          0.000000000000     0.000000000000     0.456565656550    15.994914619560

  Basis Set: 6-31G
    Blend: 6-31G
  Basis Set: (6-31G AUX)
    Blend: CC-PVDZ-JKFIT

  -Total Gradient:
     Atom            X                  Y                   Z
    ------   -----------------  -----------------  -----------------
       1       -0.000000000000    -0.000000000000     1.520511747304
       2        0.000000000000     0.000000000000    -1.520511747304

*** Psi4 exiting successfully. Buy a developer a beer!
