                               Psi4 1.2a1.dev429

  ==> Input File <==

--------------------------------------------------------------------------
# density-fitted hartree fock energies and gradients with 6-31g
molecule h2o {
0 1
O 0.0000000000 0.0000000000 0.0000000000
H 0.0000000000 0.0000000000 1.1000000000
H 0.0000000000 0.0000000000 -1.1000000000
}

set basis 6-31g

gradient('mp2')
--------------------------------------------------------------------------

    Molecular point group: d2h
  Charge       = 0
  Multiplicity = 1
  Basis Set: 6-31G
    Blend: 6-31G
  Basis Set: (6-31G AUX)
    Blend: CC-PVDZ-JKFIT

    Orbital Energies (a.u.)
    -----------------------

    Doubly Occupied:

       1Ag   -20.506873     2Ag    -1.223596     1B1u   -0.666716
       1B2u   -0.440588     1B3u   -0.440588

  @DF-RHF Final Energy:   -75.89424416093199

   => Energetics <=

    Nuclear Repulsion Energy =              7.9376581288499999
    One-Electron Energy =                -121.1070807846965920
    Two-Electron Energy =                  37.2751784949145986
    Total Energy =                        -75.8942441609319900
  Basis Set: (6-31G AUX)
    Blend: CC-PVDZ-RI
    Molecular point group: d2h

    Geometry (in Angstrom), charge = 0, multiplicity = 1:

       Center              X                  Y                   Z               Mass
    ------------   -----------------  -----------------  -----------------  -----------------
           O          0.000000000000     0.000000000000     0.000000000000    15.994914619560
           H          0.000000000000     0.000000000000     1.100000000000     1.007825032070
           H          0.000000000000     0.000000000000    -1.100000000000     1.007825032070

  Basis Set: 6-31G
    Blend: 6-31G
  Basis Set: (6-31G AUX)
    Blend: CC-PVDZ-JKFIT
  Basis Set: (6-31G AUX)
    Blend: CC-PVDZ-JKFIT
	 Reference Energy          =     -75.8942441609319900 [Eh]
	 Singles Energy            =      -0.0000000000000000 [Eh]
	 Same-Spin Energy          =      -0.0323764874968526 [Eh]
	 Opposite-Spin Energy      =      -0.1009096951588845 [Eh]
	 Correlation Energy        =      -0.1332861826557371 [Eh]
	 Total Energy              =     -76.0275303435877277 [Eh]

	 ================> DF-SCS-MP2 Energies <==================
	-----------------------------------------------------------
	 SCS Same-Spin Scale       =       0.3333333333333333 [-]
	 SCS Opposite-Spin Scale   =       1.2000000000000000 [-]
	 SCS Same-Spin Energy      =      -0.0107921624989509 [Eh]
	 SCS Opposite-Spin Energy  =      -0.1210916341906614 [Eh]
	 SCS Correlation Energy    =      -0.1318837966896122 [Eh]
	 SCS Total Energy          =     -76.0261279576215969 [Eh]
	-----------------------------------------------------------

  -Total Gradient:
     Atom            X                  Y                   Z
    ------   -----------------  -----------------  -----------------
       1       -0.000000000000     0.000000000000    -0.000000000001
       2        0.000000000000     0.000000000000     0.110566345880
       3        0.000000000000    -0.000000000000    -0.110566345880

*** Psi4 exiting successfully. Buy a developer a beer!
