                               Psi4 1.2a1.dev429

  ==> Input File <==

--------------------------------------------------------------------------
# density-fitted hartree fock energies and gradients with 6-31g
molecule h2o {
0 1
O 0.0000000000 0.0000000000 0.0000000000
H 0.0000000000 0.0000000000 0.8000000000
H 0.0000000000 0.7878462024 -0.1389185421
}

set basis 6-31g

gradient('mp2')
--------------------------------------------------------------------------

    Molecular point group: c2v
  Charge       = 0
  Multiplicity = 1
  Basis Set: 6-31G
    Blend: 6-31G
  Basis Set: (6-31G AUX)
    Blend: CC-PVDZ-JKFIT

    Orbital Energies (a.u.)
    -----------------------

    Doubly Occupied:

       1A1   -20.531993     2A1    -1.467290     1B2    -0.797085
       3A1    -0.592628     1B1    -0.515316

  @DF-RHF Final Energy:   -75.90821390094125

   => Energetics <=

    Nuclear Repulsion Energy =             11.0152890378145951
    One-Electron Energy =                -126.0383819203074154
    Two-Electron Energy =                  39.1148789815515556
    Total Energy =                        -75.9082139009412629
  Basis Set: (6-31G AUX)
    Blend: CC-PVDZ-RI
    Molecular point group: c2v

    Geometry (in Angstrom), charge = 0, multiplicity = 1:

       Center              X                  Y                   Z               Mass
    ------------   -----------------  -----------------  -----------------  -----------------
           O          0.000000000000     0.000000000000    -0.057549995104    15.994914619560
           H          0.000000000000    -0.612835554479     0.456680092652     1.007825032070
           H         -0.000000000000     0.612835554479     0.456680092652     1.007825032070

  Basis Set: 6-31G
    Blend: 6-31G
  Basis Set: (6-31G AUX)
    Blend: CC-PVDZ-JKFIT
  Basis Set: (6-31G AUX)
    Blend: CC-PVDZ-JKFIT
	 Reference Energy          =     -75.9082139009412487 [Eh]
	 Singles Energy            =      -0.0000000000000000 [Eh]
	 Same-Spin Energy          =      -0.0265936518422906 [Eh]
	 Opposite-Spin Energy      =      -0.0878416540224316 [Eh]
	 Correlation Energy        =      -0.1144353058647222 [Eh]
	 Total Energy              =     -76.0226492068059656 [Eh]

	 ================> DF-SCS-MP2 Energies <==================
	-----------------------------------------------------------
	 SCS Same-Spin Scale       =       0.3333333333333333 [-]
	 SCS Opposite-Spin Scale   =       1.2000000000000000 [-]
	 SCS Same-Spin Energy      =      -0.0088645506140969 [Eh]
	 SCS Opposite-Spin Energy  =      -0.1054099848269179 [Eh]
	 SCS Correlation Energy    =      -0.1142745354410148 [Eh]
	 SCS Total Energy          =     -76.0224884363822611 [Eh]
	-----------------------------------------------------------

  -Total Gradient:
     Atom            X                  Y                   Z
    ------   -----------------  -----------------  -----------------
       1       -0.000000000000     0.000000000029     0.349884719934
       2        0.000000000000     0.275648982137    -0.174942359955
       3       -0.000000000000    -0.275648982166    -0.174942359978

*** Psi4 exiting successfully. Buy a developer a beer!
