                               Psi4 1.2a1.dev429

  ==> Input File <==

--------------------------------------------------------------------------
# density-fitted hartree fock energies and gradients with 6-31g
molecule h2o {
0 1
O 0.0000000000 0.0000000000 0.0000000000
H 0.0000000000 0.0000000000 0.9000000000
H 0.0000000000 0.9958577761 -0.8356238926
}

set basis 6-31g

gradient('mp2')
--------------------------------------------------------------------------

    Molecular point group: cs
  Charge       = 0
  Multiplicity = 1
  Basis Set: 6-31G
    Blend: 6-31G
  Basis Set: (6-31G AUX)
    Blend: CC-PVDZ-JKFIT

    Orbital Energies (a.u.)
    -----------------------

    Doubly Occupied:

       1Ap   -20.554646     2Ap    -1.297045     3Ap    -0.669519
       4Ap    -0.487149     1App   -0.479194

  @DF-RHF Final Energy:   -75.90381813733150

   => Energetics <=

    Nuclear Repulsion Energy =              8.2247248864196774
    One-Electron Energy =                -121.2819796837507340
    Two-Electron Energy =                  37.1534366599995565
    Total Energy =                        -75.9038181373314984
  Basis Set: (6-31G AUX)
    Blend: CC-PVDZ-RI
    Molecular point group: cs

    Geometry (in Angstrom), charge = 0, multiplicity = 1:

       Center              X                  Y                   Z               Mass
    ------------   -----------------  -----------------  -----------------  -----------------
           O          0.055725648405     0.003602321951     0.000000000000    15.994914619560
           H          0.055725648405    -0.896397678049     0.000000000000     1.007825032070
           H         -0.940132127695     0.839226214551     0.000000000000     1.007825032070

  Basis Set: 6-31G
    Blend: 6-31G
  Basis Set: (6-31G AUX)
    Blend: CC-PVDZ-JKFIT
  Basis Set: (6-31G AUX)
    Blend: CC-PVDZ-JKFIT
	 Reference Energy          =     -75.9038181373314984 [Eh]
	 Singles Energy            =      -0.0000000000000000 [Eh]
	 Same-Spin Energy          =      -0.0323502505734660 [Eh]
	 Opposite-Spin Energy      =      -0.1065410275619159 [Eh]
	 Correlation Energy        =      -0.1388912781353819 [Eh]
	 Total Energy              =     -76.0427094154668737 [Eh]

	 ================> DF-SCS-MP2 Energies <==================
	-----------------------------------------------------------
	 SCS Same-Spin Scale       =       0.3333333333333333 [-]
	 SCS Opposite-Spin Scale   =       1.2000000000000000 [-]
	 SCS Same-Spin Energy      =      -0.0107834168578220 [Eh]
	 SCS Opposite-Spin Energy  =      -0.1278492330742991 [Eh]
	 SCS Correlation Energy    =      -0.1386326499321211 [Eh]
	 SCS Total Energy          =     -76.0424507872636184 [Eh]
	-----------------------------------------------------------

  -Total Gradient:
     Atom            X                  Y                   Z
    ------   -----------------  -----------------  -----------------
       1        0.039165346405    -0.190982880193     0.000000000000
       2        0.037485481194     0.092787938824    -0.000000000000
       3       -0.076650827600     0.098194941369     0.000000000000

*** Psi4 exiting successfully. Buy a developer a beer!
