                               Psi4 1.3.1 release

  ==> Input File <==

--------------------------------------------------------------------------
# density fitted hartree fock
molecule h2o {
0 1
H 0.0000000000 0.0000000000 1.0500000000
H 0.0000000000 0.8286887254 -0.1891427939
O 0.0000000000 0.0000000000 0.0000000000
}

set basis 6-31g
energy('hf')

--------------------------------------------------------------------------

    Molecular point group: cs

    Geometry (in Angstrom), charge = 0, multiplicity = 1:

       Center              X                  Y                   Z               Mass
    ------------   -----------------  -----------------  -----------------  -----------------
         H            0.046371296849    -1.001828637430     0.000000000000     1.007825032230
         H           -0.782317428551     0.237314156470     0.000000000000     1.007825032230
         O            0.046371296849     0.048171362570     0.000000000000    15.994914619570

  Charge       = 0
  Multiplicity = 1
  Basis Set: 6-31G
    Blend: 6-31G
  Basis Set: (6-31G AUX)
    Blend: CC-PVDZ-JKFIT

    Orbital Energies [Eh]
    ---------------------

    Doubly Occupied:

       1Ap   -20.559423     2Ap    -1.373292     3Ap    -0.713381
       4Ap    -0.562357     1App   -0.503501

  @DF-RHF Final Energy:   -75.96112499988645

   => Energetics <=

    Nuclear Repulsion Energy =              9.3673024113315506
    One-Electron Energy =                -123.2329397863672114
    Two-Electron Energy =                  37.9045123751492099
    Total Energy =                        -75.9611249998864508

  Dipole Moment: [D]
     X:    -2.0204      Y:    -1.7167      Z:     0.0000     Total:     2.6512

*** Psi4 exiting successfully. Buy a developer a beer!
