                               Psi4 1.3.1 release

  ==> Input File <==

--------------------------------------------------------------------------
# density fitted hartree fock
molecule h2o {
0 1
H 0.0000000000 0.0000000000 1.1000000000
H 0.0000000000 1.0877139088 -0.1639464928
O 0.0000000000 0.0000000000 0.0000000000
}

set basis 6-31g
energy('hf')

--------------------------------------------------------------------------

    Molecular point group: c2v

    Geometry (in Angstrom), charge = 0, multiplicity = 1:

       Center              X                  Y                   Z               Mass
    ------------   -----------------  -----------------  -----------------  -----------------
         H            0.000000000000    -0.833768895447     0.637215423109     1.007825032230
         H           -0.000000000000     0.833768895447     0.637215423109     1.007825032230
         O           -0.000000000000     0.000000000000    -0.080300729276    15.994914619570

  Charge       = 0
  Multiplicity = 1
  Basis Set: 6-31G
    Blend: 6-31G
  Basis Set: (6-31G AUX)
    Blend: CC-PVDZ-JKFIT

    Orbital Energies [Eh]
    ---------------------

    Doubly Occupied:

       1A1   -20.593103     2A1    -1.298876     1B2    -0.630501
       3A1    -0.550165     1B1    -0.499861

  @DF-RHF Final Energy:   -75.95133441876455

   => Energetics <=

    Nuclear Repulsion Energy =              8.0144635250764296
    One-Electron Energy =                -120.7865740017429061
    Two-Electron Energy =                  36.8207760579019379
    Total Energy =                        -75.9513344187645458

  Dipole Moment: [D]
     X:    -0.0000      Y:     0.0000      Z:     2.7507     Total:     2.7507

*** Psi4 exiting successfully. Buy a developer a beer!
