                               Psi4 1.2a1.dev429

  ==> Input File <==

--------------------------------------------------------------------------
# density-fitted hartree fock energies and gradients with 6-31g
molecule h20 {
0 1
O 0.0000000000 0.0000000000 0.0000000000
H 0.0000000000 0.0000000000 1.3000000000
H 0.0000000000 0.0000000000 -1.0000000000
}

set basis 6-31g

gradient('hf')
--------------------------------------------------------------------------

    Molecular point group: c2v
  Charge       = 0
  Multiplicity = 1
  Basis Set: 6-31G
    Blend: 6-31G
  Basis Set: (6-31G AUX)
    Blend: CC-PVDZ-JKFIT

    Orbital Energies (a.u.)
    -----------------------

    Doubly Occupied:

       1A1   -20.500635     2A1    -1.214930     3A1    -0.636228
       1B1    -0.431421     1B2    -0.431421

  @DF-RHF Final Energy:   -75.85606583328088

   => Energetics <=

    Nuclear Repulsion Energy =              7.7199698457176584
    One-Electron Energy =                -120.7228004460751976
    Two-Electron Energy =                  37.1467647670766610
    Total Energy =                        -75.8560658332808799
    Molecular point group: c2v

    Geometry (in Angstrom), charge = 0, multiplicity = 1:

       Center              X                  Y                   Z               Mass
    ------------   -----------------  -----------------  -----------------  -----------------
           O          0.000000000000     0.000000000000    -0.016787230991    15.994914619560
           H          0.000000000000     0.000000000000     1.283212769009     1.007825032070
           H          0.000000000000     0.000000000000    -1.016787230991     1.007825032070

  Basis Set: 6-31G
    Blend: 6-31G
  Basis Set: (6-31G AUX)
    Blend: CC-PVDZ-JKFIT

  -Total Gradient:
     Atom            X                  Y                   Z
    ------   -----------------  -----------------  -----------------
       1       -0.000000000000     0.000000000000    -0.103046848963
       2        0.000000000000     0.000000000000     0.160746645896
       3        0.000000000000     0.000000000000    -0.057699796933

*** Psi4 exiting successfully. Buy a developer a beer!
