                               Psi4 1.2a1.dev429

  ==> Input File <==

--------------------------------------------------------------------------
# density-fitted hartree fock energies and gradients with 6-31g
molecule h20 {
0 1
O 0.0000000000 0.0000000000 0.0000000000
H 0.0000000000 0.0000000000 0.7000000000
H 0.0000000000 0.2257426310 -1.2802500789
}

set basis 6-31g

gradient('hf')
--------------------------------------------------------------------------

    Molecular point group: cs
  Charge       = 0
  Multiplicity = 1
  Basis Set: 6-31G
    Blend: 6-31G
  Basis Set: (6-31G AUX)
    Blend: CC-PVDZ-JKFIT

    Orbital Energies (a.u.)
    -----------------------

    Doubly Occupied:

       1Ap   -20.486818     2Ap    -1.345138     3Ap    -0.721535
       1App   -0.454855     4Ap    -0.454572

  @DF-RHF Final Energy:   -75.73960242227190

   => Energetics <=

    Nuclear Repulsion Energy =              9.5697225100266081
    One-Electron Energy =                -123.6928132416831545
    Two-Electron Energy =                  38.3834883093846386
    Total Energy =                        -75.7396024222719007
    Molecular point group: cs

    Geometry (in Angstrom), charge = 0, multiplicity = 1:

       Center              X                  Y                   Z               Mass
    ------------   -----------------  -----------------  -----------------  -----------------
           O          0.012631978970    -0.032469307023     0.000000000000    15.994914619560
           H          0.012631978970    -0.732469307023     0.000000000000     1.007825032070
           H         -0.213110652030     1.247780771877     0.000000000000     1.007825032070

  Basis Set: 6-31G
    Blend: 6-31G
  Basis Set: (6-31G AUX)
    Blend: CC-PVDZ-JKFIT

  -Total Gradient:
     Atom            X                  Y                   Z
    ------   -----------------  -----------------  -----------------
       1       -0.004108682214    -0.900030496816     0.000000000000
       2        0.022319436343     0.727542363958     0.000000000000
       3       -0.018210754129     0.172488132858     0.000000000000

*** Psi4 exiting successfully. Buy a developer a beer!
