                               Psi4 1.2a1.dev429

  ==> Input File <==

--------------------------------------------------------------------------
# density-fitted hartree fock energies and gradients with 6-31g
molecule h2o {
0 1
O 0.0000000000 0.0000000000 0.0000000000
H 0.0000000000 0.0000000000 0.9000000000
H 0.0000000000 0.2257426310 -1.2802500789
}

set basis 6-31g

gradient('mp2')
--------------------------------------------------------------------------

    Molecular point group: cs
  Charge       = 0
  Multiplicity = 1
  Basis Set: 6-31G
    Blend: 6-31G
  Basis Set: (6-31G AUX)
    Blend: CC-PVDZ-JKFIT

    Orbital Energies (a.u.)
    -----------------------

    Doubly Occupied:

       1Ap   -20.499958     2Ap    -1.250871     3Ap    -0.666259
       1App   -0.440979     4Ap    -0.440403

  @DF-RHF Final Energy:   -75.86040722447265

   => Energetics <=

    Nuclear Repulsion Energy =              8.2016958971208602
    One-Electron Energy =                -121.5272670709056229
    Two-Electron Energy =                  37.4651639493121067
    Total Energy =                        -75.8604072244726524
  Basis Set: (6-31G AUX)
    Blend: CC-PVDZ-RI
    Molecular point group: cs

    Geometry (in Angstrom), charge = 0, multiplicity = 1:

       Center              X                  Y                   Z               Mass
    ------------   -----------------  -----------------  -----------------  -----------------
           O          0.012631978970    -0.021277819696     0.000000000000    15.994914619560
           H          0.012631978970    -0.921277819696     0.000000000000     1.007825032070
           H         -0.213110652030     1.258972259204     0.000000000000     1.007825032070

  Basis Set: 6-31G
    Blend: 6-31G
  Basis Set: (6-31G AUX)
    Blend: CC-PVDZ-JKFIT
  Basis Set: (6-31G AUX)
    Blend: CC-PVDZ-JKFIT
	 Reference Energy          =     -75.8604072244726524 [Eh]
	 Singles Energy            =      -0.0000000000000000 [Eh]
	 Same-Spin Energy          =      -0.0323294282689495 [Eh]
	 Opposite-Spin Energy      =      -0.1016139078402325 [Eh]
	 Correlation Energy        =      -0.1339433361091820 [Eh]
	 Total Energy              =     -75.9943505605818359 [Eh]

	 ================> DF-SCS-MP2 Energies <==================
	-----------------------------------------------------------
	 SCS Same-Spin Scale       =       0.3333333333333333 [-]
	 SCS Opposite-Spin Scale   =       1.2000000000000000 [-]
	 SCS Same-Spin Energy      =      -0.0107764760896498 [Eh]
	 SCS Opposite-Spin Energy  =      -0.1219366894082790 [Eh]
	 SCS Correlation Energy    =      -0.1327131654979288 [Eh]
	 SCS Total Energy          =     -75.9931203899705849 [Eh]
	-----------------------------------------------------------

  -Total Gradient:
     Atom            X                  Y                   Z
    ------   -----------------  -----------------  -----------------
       1       -0.013913281237    -0.221669174427     0.000000000000
       2        0.023552980993     0.073097728597    -0.000000000000
       3       -0.009639699756     0.148571445830     0.000000000000

*** Psi4 exiting successfully. Buy a developer a beer!
