                               Psi4 1.2a1.dev429

  ==> Input File <==

--------------------------------------------------------------------------
# density-fitted hartree fock energies and gradients with 6-31g
molecule h2o {
0 1
O 0.0000000000 0.0000000000 0.0000000000
H 0.0000000000 0.0000000000 1.5000000000
H 0.0000000000 0.6000000000 -1.0392304845
}

set basis 6-31g

gradient('mp2')
--------------------------------------------------------------------------

    Molecular point group: cs
  Charge       = 0
  Multiplicity = 1
  Basis Set: 6-31G
    Blend: 6-31G
  Basis Set: (6-31G AUX)
    Blend: CC-PVDZ-JKFIT

    Orbital Energies (a.u.)
    -----------------------

    Doubly Occupied:

       1Ap   -20.560742     2Ap    -1.193317     3Ap    -0.558919
       1App   -0.451764     4Ap    -0.431585

  @DF-RHF Final Energy:   -75.79084060138771

   => Energetics <=

    Nuclear Repulsion Energy =              6.5529420296193654
    One-Electron Energy =                -118.2949109415743862
    Two-Electron Energy =                  35.9511283105673058
    Total Energy =                        -75.7908406013877141
  Basis Set: (6-31G AUX)
    Blend: CC-PVDZ-RI
    Molecular point group: cs

    Geometry (in Angstrom), charge = 0, multiplicity = 1:

       Center              X                  Y                   Z               Mass
    ------------   -----------------  -----------------  -----------------  -----------------
           O          0.033574461982     0.025783480967     0.000000000000    15.994914619560
           H          0.033574461982    -1.474216519033     0.000000000000     1.007825032070
           H         -0.566425538018     1.065013965467     0.000000000000     1.007825032070

  Basis Set: 6-31G
    Blend: 6-31G
  Basis Set: (6-31G AUX)
    Blend: CC-PVDZ-JKFIT
  Basis Set: (6-31G AUX)
    Blend: CC-PVDZ-JKFIT
	 Reference Energy          =     -75.7908406013877141 [Eh]
	 Singles Energy            =      -0.0000000000000000 [Eh]
	 Same-Spin Energy          =      -0.0361298988713520 [Eh]
	 Opposite-Spin Energy      =      -0.1222954869848076 [Eh]
	 Correlation Energy        =      -0.1584253858561596 [Eh]
	 Total Energy              =     -75.9492659872438765 [Eh]

	 ================> DF-SCS-MP2 Energies <==================
	-----------------------------------------------------------
	 SCS Same-Spin Scale       =       0.3333333333333333 [-]
	 SCS Opposite-Spin Scale   =       1.2000000000000000 [-]
	 SCS Same-Spin Energy      =      -0.0120432996237840 [Eh]
	 SCS Opposite-Spin Energy  =      -0.1467545843817691 [Eh]
	 SCS Correlation Energy    =      -0.1587978840055531 [Eh]
	 SCS Total Energy          =     -75.9496384853932653 [Eh]
	-----------------------------------------------------------

  -Total Gradient:
     Atom            X                  Y                   Z
    ------   -----------------  -----------------  -----------------
       1       -0.028550613613    -0.008008020537     0.000000000000
       2        0.037020638792    -0.099214092463     0.000000000000
       3       -0.008470025179     0.107222113000    -0.000000000000

*** Psi4 exiting successfully. Buy a developer a beer!
