                               Psi4 1.2a1.dev429

  ==> Input File <==

--------------------------------------------------------------------------
# density-fitted hartree fock energies and gradients with 6-31g
molecule h2o {
0 1
O 0.0000000000 0.0000000000 0.0000000000
H 0.0000000000 0.0000000000 0.9000000000
H 0.0000000000 0.9396926208 -0.3420201433
}

set basis 6-31g

gradient('mp2')
--------------------------------------------------------------------------

    Molecular point group: cs
  Charge       = 0
  Multiplicity = 1
  Basis Set: 6-31G
    Blend: 6-31G
  Basis Set: (6-31G AUX)
    Blend: CC-PVDZ-JKFIT

    Orbital Energies (a.u.)
    -----------------------

    Doubly Occupied:

       1Ap   -20.554555     2Ap    -1.356835     3Ap    -0.723990
       4Ap    -0.550625     1App   -0.499263

  @DF-RHF Final Energy:   -75.97986555989512

   => Energetics <=

    Nuclear Repulsion Energy =              9.2769876312068007
    One-Electron Energy =                -123.1431687189919444
    Two-Electron Energy =                  37.8863155278900336
    Total Energy =                        -75.9798655598951171
  Basis Set: (6-31G AUX)
    Blend: CC-PVDZ-RI
    Molecular point group: cs

    Geometry (in Angstrom), charge = 0, multiplicity = 1:

       Center              X                  Y                   Z               Mass
    ------------   -----------------  -----------------  -----------------  -----------------
           O          0.052582790286     0.031223122476     0.000000000000    15.994914619560
           H          0.052582790286    -0.868776877524     0.000000000000     1.007825032070
           H         -0.887109830514     0.373243265776     0.000000000000     1.007825032070

  Basis Set: 6-31G
    Blend: 6-31G
  Basis Set: (6-31G AUX)
    Blend: CC-PVDZ-JKFIT
  Basis Set: (6-31G AUX)
    Blend: CC-PVDZ-JKFIT
	 Reference Energy          =     -75.9798655598951171 [Eh]
	 Singles Energy            =      -0.0000000000000000 [Eh]
	 Same-Spin Energy          =      -0.0299963852934586 [Eh]
	 Opposite-Spin Energy      =      -0.0977257174136668 [Eh]
	 Correlation Energy        =      -0.1277221027071253 [Eh]
	 Total Energy              =     -76.1075876626022421 [Eh]

	 ================> DF-SCS-MP2 Energies <==================
	-----------------------------------------------------------
	 SCS Same-Spin Scale       =       0.3333333333333333 [-]
	 SCS Opposite-Spin Scale   =       1.2000000000000000 [-]
	 SCS Same-Spin Energy      =      -0.0099987950978195 [Eh]
	 SCS Opposite-Spin Energy  =      -0.1172708608964001 [Eh]
	 SCS Correlation Energy    =      -0.1272696559942196 [Eh]
	 SCS Total Energy          =     -76.1071352158893433 [Eh]
	-----------------------------------------------------------

  -Total Gradient:
     Atom            X                  Y                   Z
    ------   -----------------  -----------------  -----------------
       1        0.024508589215    -0.100636820489    -0.000000000000
       2       -0.001010352490     0.093051837503    -0.000000000000
       3       -0.023498236725     0.007584982986     0.000000000000

*** Psi4 exiting successfully. Buy a developer a beer!
