                               Psi4 1.2.1 release

  ==> Input File <==

--------------------------------------------------------------------------
# density fitted hartree fock
molecule h2o {
0 1
H 0.0000000000 0.0000000000 1.0250000000
H 0.0000000000 0.8210369523 -0.2199961883
O 0.0000000000 0.0000000000 0.0000000000
}

set basis 6-31g
energy('hf')

--------------------------------------------------------------------------

    Molecular point group: cs

    Geometry (in Angstrom), charge = 0, multiplicity = 1:

       Center              X                  Y                   Z               Mass
    ------------   -----------------  -----------------  -----------------  -----------------
         H            0.045943123234    -0.979954050215     0.000000000000     1.007825032070
         H           -0.775093829066     0.265042138085     0.000000000000     1.007825032070
         O            0.045943123234     0.045045949785     0.000000000000    15.994914619560

  Charge       = 0
  Multiplicity = 1
  Basis Set: 6-31G
    Blend: 6-31G
  Basis Set: (6-31G AUX)
    Blend: CC-PVDZ-JKFIT

    Orbital Energies [Eh]
    ---------------------

    Doubly Occupied:

       1Ap   -20.555574     2Ap    -1.375433     3Ap    -0.723516
       4Ap    -0.560877     1App   -0.502995

  @DF-RHF Final Energy:   -75.96529481159916

   => Energetics <=

    Nuclear Repulsion Energy =              9.4654865614939929
    One-Electron Energy =                -123.4247663215322888
    Two-Electron Energy =                  37.9939849484391274
    Total Energy =                        -75.9652948115991649

  Dipole Moment: [D]
     X:    -2.0172      Y:    -1.6594      Z:     0.0000     Total:     2.6121

*** Psi4 exiting successfully. Buy a developer a beer!
