                               Psi4 1.2a1.dev429

  ==> Input File <==

--------------------------------------------------------------------------
# density-fitted hartree fock energies and gradients with 6-31g
molecule h2o {
0 1
O 0.0000000000 0.0000000000 0.0000000000
H 0.0000000000 0.0000000000 1.5000000000
H 0.0000000000 0.8660254038 -0.5000000000
}

set basis 6-31g

gradient('mp2')
--------------------------------------------------------------------------

    Molecular point group: cs
  Charge       = 0
  Multiplicity = 1
  Basis Set: 6-31G
    Blend: 6-31G
  Basis Set: (6-31G AUX)
    Blend: CC-PVDZ-JKFIT

    Orbital Energies (a.u.)
    -----------------------

    Doubly Occupied:

       1Ap   -20.588727     2Ap    -1.267470     3Ap    -0.615675
       1App   -0.486224     4Ap    -0.473558

  @DF-RHF Final Energy:   -75.86250538560483

   => Energetics <=

    Nuclear Repulsion Energy =              7.2984992697880937
    One-Electron Energy =                -119.4586999461823069
    Two-Electron Energy =                  36.2976952907893704
    Total Energy =                        -75.8625053856048339
  Basis Set: (6-31G AUX)
    Blend: CC-PVDZ-RI
    Molecular point group: cs

    Geometry (in Angstrom), charge = 0, multiplicity = 1:

       Center              X                  Y                   Z               Mass
    ------------   -----------------  -----------------  -----------------  -----------------
           O          0.048460561658     0.055957436636     0.000000000000    15.994914619560
           H          0.048460561658    -1.444042563364     0.000000000000     1.007825032070
           H         -0.817564842142     0.555957436636     0.000000000000     1.007825032070

  Basis Set: 6-31G
    Blend: 6-31G
  Basis Set: (6-31G AUX)
    Blend: CC-PVDZ-JKFIT
  Basis Set: (6-31G AUX)
    Blend: CC-PVDZ-JKFIT
	 Reference Energy          =     -75.8625053856048339 [Eh]
	 Singles Energy            =      -0.0000000000000000 [Eh]
	 Same-Spin Energy          =      -0.0345896506414445 [Eh]
	 Opposite-Spin Energy      =      -0.1193624388178182 [Eh]
	 Correlation Energy        =      -0.1539520894592628 [Eh]
	 Total Energy              =     -76.0164574750641009 [Eh]

	 ================> DF-SCS-MP2 Energies <==================
	-----------------------------------------------------------
	 SCS Same-Spin Scale       =       0.3333333333333333 [-]
	 SCS Opposite-Spin Scale   =       1.2000000000000000 [-]
	 SCS Same-Spin Energy      =      -0.0115298835471482 [Eh]
	 SCS Opposite-Spin Energy  =      -0.1432349265813818 [Eh]
	 SCS Correlation Energy    =      -0.1547648101285300 [Eh]
	 SCS Total Energy          =     -76.0172701957333601 [Eh]
	-----------------------------------------------------------

  -Total Gradient:
     Atom            X                  Y                   Z
    ------   -----------------  -----------------  -----------------
       1       -0.023409097628     0.074908455403     0.000000000000
       2        0.018964283110    -0.105189342924    -0.000000000000
       3        0.004444814518     0.030280887520    -0.000000000000

*** Psi4 exiting successfully. Buy a developer a beer!
