                               Psi4 1.2a1.dev429

  ==> Input File <==

--------------------------------------------------------------------------
# density-fitted hartree fock energies and gradients with 6-31g
molecule h20 {
0 1
O 0.0000000000 0.0000000000 0.0000000000
H 0.0000000000 0.0000000000 1.2000000000
H 0.0000000000 0.9848077530 -0.1736481777
}

set basis 6-31g

gradient('hf')
--------------------------------------------------------------------------

    Molecular point group: cs
  Charge       = 0
  Multiplicity = 1
  Basis Set: 6-31G
    Blend: 6-31G
  Basis Set: (6-31G AUX)
    Blend: CC-PVDZ-JKFIT

    Orbital Energies (a.u.)
    -----------------------

    Doubly Occupied:

       1Ap   -20.590626     2Ap    -1.304941     3Ap    -0.638672
       4Ap    -0.542501     1App   -0.499695

  @DF-RHF Final Energy:   -75.94440490761721

   => Energetics <=

    Nuclear Repulsion Energy =              8.0743524017076673
    One-Electron Energy =                -120.8846444375971174
    Two-Electron Energy =                  36.8658871282722345
    Total Energy =                        -75.9444049076172121
    Molecular point group: cs

    Geometry (in Angstrom), charge = 0, multiplicity = 1:

       Center              X                  Y                   Z               Mass
    ------------   -----------------  -----------------  -----------------  -----------------
           O          0.055107317437     0.057432017063     0.000000000000    15.994914619560
           H          0.055107317437    -1.142567982937     0.000000000000     1.007825032070
           H         -0.929700435563     0.231080194763     0.000000000000     1.007825032070

  Basis Set: 6-31G
    Blend: 6-31G
  Basis Set: (6-31G AUX)
    Blend: CC-PVDZ-JKFIT

  -Total Gradient:
     Atom            X                  Y                   Z
    ------   -----------------  -----------------  -----------------
       1        0.046153010748     0.121561224608     0.000000000000
       2       -0.006894563272    -0.120082439231     0.000000000000
       3       -0.039258447476    -0.001478785377     0.000000000000

*** Psi4 exiting successfully. Buy a developer a beer!
