                               Psi4 1.2a1.dev429

  ==> Input File <==

--------------------------------------------------------------------------
# density-fitted hartree fock energies and gradients with 6-31g
molecule h2o {
0 1
O 0.0000000000 0.0000000000 0.0000000000
H 0.0000000000 0.0000000000 1.3000000000
H 0.0000000000 1.2216004070 -0.4446261863
}

set basis 6-31g

gradient('mp2')
--------------------------------------------------------------------------

    Molecular point group: c2v
  Charge       = 0
  Multiplicity = 1
  Basis Set: 6-31G
    Blend: 6-31G
  Basis Set: (6-31G AUX)
    Blend: CC-PVDZ-JKFIT

    Orbital Energies (a.u.)
    -----------------------

    Doubly Occupied:

       1A1   -20.616289     2A1    -1.237410     1B2    -0.565320
       3A1    -0.500452     1B1    -0.492783

  @DF-RHF Final Energy:   -75.86100652587906

   => Energetics <=

    Nuclear Repulsion Energy =              6.7614141401048924
    One-Electron Energy =                -118.4203338105954089
    Two-Electron Energy =                  35.7979131446114636
    Total Energy =                        -75.8610065258790485
  Basis Set: (6-31G AUX)
    Blend: CC-PVDZ-RI
    Molecular point group: c2v

    Geometry (in Angstrom), charge = 0, multiplicity = 1:

       Center              X                  Y                   Z               Mass
    ------------   -----------------  -----------------  -----------------  -----------------
           O         -0.000000000000     0.000000000000    -0.083449254442    15.994914619560
           H          0.000000000000    -1.064897657560     0.662200112812     1.007825032070
           H         -0.000000000000     1.064897657560     0.662200112812     1.007825032070

  Basis Set: 6-31G
    Blend: 6-31G
  Basis Set: (6-31G AUX)
    Blend: CC-PVDZ-JKFIT
  Basis Set: (6-31G AUX)
    Blend: CC-PVDZ-JKFIT
	 Reference Energy          =     -75.8610065258790627 [Eh]
	 Singles Energy            =      -0.0000000000000000 [Eh]
	 Same-Spin Energy          =      -0.0365188279206497 [Eh]
	 Opposite-Spin Energy      =      -0.1245586083538890 [Eh]
	 Correlation Energy        =      -0.1610774362745386 [Eh]
	 Total Energy              =     -76.0220839621536015 [Eh]

	 ================> DF-SCS-MP2 Energies <==================
	-----------------------------------------------------------
	 SCS Same-Spin Scale       =       0.3333333333333333 [-]
	 SCS Opposite-Spin Scale   =       1.2000000000000000 [-]
	 SCS Same-Spin Energy      =      -0.0121729426402166 [Eh]
	 SCS Opposite-Spin Energy  =      -0.1494703300246668 [Eh]
	 SCS Correlation Energy    =      -0.1616432726648833 [Eh]
	 SCS Total Energy          =     -76.0226497985439522 [Eh]
	-----------------------------------------------------------

  -Total Gradient:
     Atom            X                  Y                   Z
    ------   -----------------  -----------------  -----------------
       1        0.000000000000    -0.000000000004    -0.092271821819
       2       -0.000000000000    -0.092664065090     0.046135910908
       3        0.000000000000     0.092664065094     0.046135910911

*** Psi4 exiting successfully. Buy a developer a beer!
