                               Psi4 1.2a1.dev429

  ==> Input File <==

--------------------------------------------------------------------------
# density-fitted hartree fock energies and gradients with 6-31g
molecule h2o {
0 1
O 0.0000000000 0.0000000000 0.0000000000
H 0.0000000000 0.0000000000 1.2000000000
H 0.0000000000 0.7070663707 -0.8426488874
}

set basis 6-31g

gradient('mp2')
--------------------------------------------------------------------------

    Molecular point group: cs
  Charge       = 0
  Multiplicity = 1
  Basis Set: 6-31G
    Blend: 6-31G
  Basis Set: (6-31G AUX)
    Blend: CC-PVDZ-JKFIT

    Orbital Energies (a.u.)
    -----------------------

    Doubly Occupied:

       1Ap   -20.553703     2Ap    -1.242284     3Ap    -0.639853
       4Ap    -0.470331     1App   -0.466058

  @DF-RHF Final Energy:   -75.90386669778366

   => Energetics <=

    Nuclear Repulsion Energy =              7.6212218023514380
    One-Electron Energy =                -120.3057176394058985
    Two-Electron Energy =                  36.7806291392708147
    Total Energy =                        -75.9038666977836414
  Basis Set: (6-31G AUX)
    Blend: CC-PVDZ-RI
    Molecular point group: cs

    Geometry (in Angstrom), charge = 0, multiplicity = 1:

       Center              X                  Y                   Z               Mass
    ------------   -----------------  -----------------  -----------------  -----------------
           O          0.039565621636     0.019996452240     0.000000000000    15.994914619560
           H          0.039565621636    -1.180003547760     0.000000000000     1.007825032070
           H         -0.667500749064     0.862645339640     0.000000000000     1.007825032070

  Basis Set: 6-31G
    Blend: 6-31G
  Basis Set: (6-31G AUX)
    Blend: CC-PVDZ-JKFIT
  Basis Set: (6-31G AUX)
    Blend: CC-PVDZ-JKFIT
	 Reference Energy          =     -75.9038666977836556 [Eh]
	 Singles Energy            =      -0.0000000000000000 [Eh]
	 Same-Spin Energy          =      -0.0335515101851384 [Eh]
	 Opposite-Spin Energy      =      -0.1087816901647221 [Eh]
	 Correlation Energy        =      -0.1423332003498605 [Eh]
	 Total Energy              =     -76.0461998981335228 [Eh]

	 ================> DF-SCS-MP2 Energies <==================
	-----------------------------------------------------------
	 SCS Same-Spin Scale       =       0.3333333333333333 [-]
	 SCS Opposite-Spin Scale   =       1.2000000000000000 [-]
	 SCS Same-Spin Energy      =      -0.0111838367283795 [Eh]
	 SCS Opposite-Spin Energy  =      -0.1305380281976665 [Eh]
	 SCS Correlation Energy    =      -0.1417218649260460 [Eh]
	 SCS Total Energy          =     -76.0455885627096961 [Eh]
	-----------------------------------------------------------

  -Total Gradient:
     Atom            X                  Y                   Z
    ------   -----------------  -----------------  -----------------
       1       -0.010660430582     0.021996443411    -0.000000000000
       2        0.035558727999    -0.112017689709     0.000000000000
       3       -0.024898297417     0.090021246298    -0.000000000000

*** Psi4 exiting successfully. Buy a developer a beer!
