                               Psi4 1.2a1.dev429

  ==> Input File <==

--------------------------------------------------------------------------
# density-fitted hartree fock energies and gradients with 6-31g
molecule h2o {
0 1
O 0.0000000000 0.0000000000 0.0000000000
H 0.0000000000 0.0000000000 1.5000000000
H 0.0000000000 0.7517540966 -0.2736161147
}

set basis 6-31g

gradient('mp2')
--------------------------------------------------------------------------

    Molecular point group: cs
  Charge       = 0
  Multiplicity = 1
  Basis Set: 6-31G
    Blend: 6-31G
  Basis Set: (6-31G AUX)
    Blend: CC-PVDZ-JKFIT

    Orbital Energies (a.u.)
    -----------------------

    Doubly Occupied:

       1Ap   -20.576590     2Ap    -1.352930     3Ap    -0.666189
       1App   -0.498207     4Ap    -0.490663

  @DF-RHF Final Energy:   -75.83327978068382

   => Energetics <=

    Nuclear Repulsion Energy =              8.3887542439086964
    One-Electron Energy =                -121.2749094293089200
    Two-Electron Energy =                  37.0528754047164028
    Total Energy =                        -75.8332797806838244
  Basis Set: (6-31G AUX)
    Blend: CC-PVDZ-RI
    Molecular point group: cs

    Geometry (in Angstrom), charge = 0, multiplicity = 1:

       Center              X                  Y                   Z               Mass
    ------------   -----------------  -----------------  -----------------  -----------------
           O          0.042066232226     0.068625298553     0.000000000000    15.994914619560
           H          0.042066232226    -1.431374701447     0.000000000000     1.007825032070
           H         -0.709687864374     0.342241413253     0.000000000000     1.007825032070

  Basis Set: 6-31G
    Blend: 6-31G
  Basis Set: (6-31G AUX)
    Blend: CC-PVDZ-JKFIT
  Basis Set: (6-31G AUX)
    Blend: CC-PVDZ-JKFIT
	 Reference Energy          =     -75.8332797806838244 [Eh]
	 Singles Energy            =      -0.0000000000000000 [Eh]
	 Same-Spin Energy          =      -0.0319117207755151 [Eh]
	 Opposite-Spin Energy      =      -0.1116431943872360 [Eh]
	 Correlation Energy        =      -0.1435549151627511 [Eh]
	 Total Energy              =     -75.9768346958465770 [Eh]

	 ================> DF-SCS-MP2 Energies <==================
	-----------------------------------------------------------
	 SCS Same-Spin Scale       =       0.3333333333333333 [-]
	 SCS Opposite-Spin Scale   =       1.2000000000000000 [-]
	 SCS Same-Spin Energy      =      -0.0106372402585050 [Eh]
	 SCS Opposite-Spin Energy  =      -0.1339718332646831 [Eh]
	 SCS Correlation Energy    =      -0.1446090735231882 [Eh]
	 SCS Total Energy          =     -75.9778888542070092 [Eh]
	-----------------------------------------------------------

  -Total Gradient:
     Atom            X                  Y                   Z
    ------   -----------------  -----------------  -----------------
       1       -0.329041433483     0.206670784388    -0.000000000000
       2        0.009261105304    -0.108759260946     0.000000000000
       3        0.319780328179    -0.097911523442     0.000000000000

*** Psi4 exiting successfully. Buy a developer a beer!
