                               Psi4 1.2a1.dev429

  ==> Input File <==

--------------------------------------------------------------------------
# density-fitted hartree fock energies and gradients with 6-31g
molecule h20 {
0 1
O 0.0000000000 0.0000000000 0.0000000000
O 0.0000000000 0.0000000000 1.0333333333
}

set basis 6-31g

gradient('hf')
--------------------------------------------------------------------------

    Molecular point group: d2h
  Charge       = 0
  Multiplicity = 1
  Basis Set: 6-31G
    Blend: 6-31G
  Basis Set: (6-31G AUX)
    Blend: CC-PVDZ-JKFIT

    Orbital Energies (a.u.)
    -----------------------

    Doubly Occupied:

       1Ag   -20.728528     1B1u  -20.726453     2Ag    -1.897259
       2B1u   -1.037140     1B3u   -0.862723     3Ag    -0.778287
       1B2u   -0.754646     1B2g   -0.406130

  @DF-RHF Final Energy:  -149.39620202861147

   => Energetics <=

    Nuclear Repulsion Energy =             32.7748464685669276
    One-Electron Energy =                -269.9597649309354210
    Two-Electron Energy =                  87.7887164337570312
    Total Energy =                       -149.3962020286114694
    Molecular point group: d2h

    Geometry (in Angstrom), charge = 0, multiplicity = 1:

       Center              X                  Y                   Z               Mass
    ------------   -----------------  -----------------  -----------------  -----------------
           O          0.000000000000     0.000000000000    -0.516666666650    15.994914619560
           O          0.000000000000     0.000000000000     0.516666666650    15.994914619560

  Basis Set: 6-31G
    Blend: 6-31G
  Basis Set: (6-31G AUX)
    Blend: CC-PVDZ-JKFIT

  -Total Gradient:
     Atom            X                  Y                   Z
    ------   -----------------  -----------------  -----------------
       1        0.000000000000    -0.000000000000     0.528718643053
       2       -0.000000000000     0.000000000000    -0.528718643053

*** Psi4 exiting successfully. Buy a developer a beer!
