                               Psi4 1.2a1.dev429

  ==> Input File <==

--------------------------------------------------------------------------
# density-fitted hartree fock energies and gradients with 6-31g
molecule h2o {
0 1
O 0.0000000000 0.0000000000 0.0000000000
H 0.0000000000 0.0000000000 1.4000000000
H 0.0000000000 1.1817693036 -0.2083778132
}

set basis 6-31g

gradient('mp2')
--------------------------------------------------------------------------

    Molecular point group: cs
  Charge       = 0
  Multiplicity = 1
  Basis Set: 6-31G
    Blend: 6-31G
  Basis Set: (6-31G AUX)
    Blend: CC-PVDZ-JKFIT

    Orbital Energies (a.u.)
    -----------------------

    Doubly Occupied:

       1Ap   -20.624167     2Ap    -1.248902     3Ap    -0.568865
       4Ap    -0.507022     1App   -0.499729

  @DF-RHF Final Energy:   -75.86267889091222

   => Energetics <=

    Nuclear Repulsion Energy =              6.8168552349359288
    One-Electron Energy =                -118.4616980373585733
    Two-Electron Energy =                  35.7821639115104091
    Total Energy =                        -75.8626788909122354
  Basis Set: (6-31G AUX)
    Blend: CC-PVDZ-RI
    Molecular point group: cs

    Geometry (in Angstrom), charge = 0, multiplicity = 1:

       Center              X                  Y                   Z               Mass
    ------------   -----------------  -----------------  -----------------  -----------------
           O          0.066128780925     0.066680123012     0.000000000000    15.994914619560
           H          0.066128780925    -1.333319876988     0.000000000000     1.007825032070
           H         -1.115640522675     0.275057936212     0.000000000000     1.007825032070

  Basis Set: 6-31G
    Blend: 6-31G
  Basis Set: (6-31G AUX)
    Blend: CC-PVDZ-JKFIT
  Basis Set: (6-31G AUX)
    Blend: CC-PVDZ-JKFIT
	 Reference Energy          =     -75.8626788909122212 [Eh]
	 Singles Energy            =      -0.0000000000000000 [Eh]
	 Same-Spin Energy          =      -0.0367912232281637 [Eh]
	 Opposite-Spin Energy      =      -0.1260190881268023 [Eh]
	 Correlation Energy        =      -0.1628103113549661 [Eh]
	 Total Energy              =     -76.0254892022671811 [Eh]

	 ================> DF-SCS-MP2 Energies <==================
	-----------------------------------------------------------
	 SCS Same-Spin Scale       =       0.3333333333333333 [-]
	 SCS Opposite-Spin Scale   =       1.2000000000000000 [-]
	 SCS Same-Spin Energy      =      -0.0122637410760546 [Eh]
	 SCS Opposite-Spin Energy  =      -0.1512229057521628 [Eh]
	 SCS Correlation Energy    =      -0.1634866468282174 [Eh]
	 SCS Total Energy          =     -76.0261655377404395 [Eh]
	-----------------------------------------------------------

  -Total Gradient:
     Atom            X                  Y                   Z
    ------   -----------------  -----------------  -----------------
       1        0.080611483539     0.080221720542    -0.000000000000
       2        0.005374452965    -0.101750298680     0.000000000000
       3       -0.085985936504     0.021528578138     0.000000000000

*** Psi4 exiting successfully. Buy a developer a beer!
