                               Psi4 1.2a1.dev429

  ==> Input File <==

--------------------------------------------------------------------------
# density-fitted hartree fock energies and gradients with 6-31g
molecule h2o {
0 1
O 0.0000000000 0.0000000000 0.0000000000
H 0.0000000000 0.0000000000 1.1000000000
H 0.0000000000 0.3762221577 -1.0336618829
}

set basis 6-31g

gradient('mp2')
--------------------------------------------------------------------------

    Molecular point group: c2v
  Charge       = 0
  Multiplicity = 1
  Basis Set: 6-31G
    Blend: 6-31G
  Basis Set: (6-31G AUX)
    Blend: CC-PVDZ-JKFIT

    Orbital Energies (a.u.)
    -----------------------

    Doubly Occupied:

       1A1   -20.520252     2A1    -1.234570     1B2    -0.667752
       3A1    -0.450718     1B1    -0.449879

  @DF-RHF Final Energy:   -75.90458229122456

   => Energetics <=

    Nuclear Repulsion Energy =              7.9413687702311391
    One-Electron Energy =                -121.0455612853019147
    Two-Electron Energy =                  37.1996102238462356
    Total Energy =                        -75.9045822912245427
  Basis Set: (6-31G AUX)
    Blend: CC-PVDZ-RI
    Molecular point group: c2v

    Geometry (in Angstrom), charge = 0, multiplicity = 1:

       Center              X                  Y                   Z               Mass
    ------------   -----------------  -----------------  -----------------  -----------------
           O         -0.000000000000     0.000000000000    -0.021377195179    15.994914619560
           H          0.000000000000    -1.083288528335     0.169635800272     1.007825032070
           H         -0.000000000000     1.083288528335     0.169635800272     1.007825032070

  Basis Set: 6-31G
    Blend: 6-31G
  Basis Set: (6-31G AUX)
    Blend: CC-PVDZ-JKFIT
  Basis Set: (6-31G AUX)
    Blend: CC-PVDZ-JKFIT
	 Reference Energy          =     -75.9045822912245569 [Eh]
	 Singles Energy            =      -0.0000000000000000 [Eh]
	 Same-Spin Energy          =      -0.0325974548335996 [Eh]
	 Opposite-Spin Energy      =      -0.1026754727890491 [Eh]
	 Correlation Energy        =      -0.1352729276226488 [Eh]
	 Total Energy              =     -76.0398552188472081 [Eh]

	 ================> DF-SCS-MP2 Energies <==================
	-----------------------------------------------------------
	 SCS Same-Spin Scale       =       0.3333333333333333 [-]
	 SCS Opposite-Spin Scale   =       1.2000000000000000 [-]
	 SCS Same-Spin Energy      =      -0.0108658182778665 [Eh]
	 SCS Opposite-Spin Energy  =      -0.1232105673468589 [Eh]
	 SCS Correlation Energy    =      -0.1340763856247255 [Eh]
	 SCS Total Energy          =     -76.0386586768492805 [Eh]
	-----------------------------------------------------------

  -Total Gradient:
     Atom            X                  Y                   Z
    ------   -----------------  -----------------  -----------------
       1        0.000000000000    -0.000000000004     0.024948391620
       2       -0.000000000000    -0.106189146365    -0.012474195810
       3       -0.000000000000     0.106189146368    -0.012474195810

*** Psi4 exiting successfully. Buy a developer a beer!
