                               Psi4 1.2a1.dev429

  ==> Input File <==

--------------------------------------------------------------------------
# density-fitted hartree fock energies and gradients with 6-31g
molecule h20 {
0 1
O 0.0000000000 0.0000000000 0.0000000000
H 0.0000000000 0.0000000000 1.0000000000
H 0.0000000000 0.7794228634 -0.4500000000
}

set basis 6-31g

gradient('hf')
--------------------------------------------------------------------------

    Molecular point group: cs
  Charge       = 0
  Multiplicity = 1
  Basis Set: 6-31G
    Blend: 6-31G
  Basis Set: (6-31G AUX)
    Blend: CC-PVDZ-JKFIT

    Orbital Energies (a.u.)
    -----------------------

    Doubly Occupied:

       1Ap   -20.546246     2Ap    -1.345766     3Ap    -0.738538
       4Ap    -0.532071     1App   -0.493942

  @DF-RHF Final Energy:   -75.97807757926913

   => Energetics <=

    Nuclear Repulsion Energy =              9.2586673400419084
    One-Electron Energy =                -123.1603655289762145
    Two-Electron Energy =                  37.9236206096651856
    Total Energy =                        -75.9780775792691259
    Molecular point group: cs

    Geometry (in Angstrom), charge = 0, multiplicity = 1:

       Center              X                  Y                   Z               Mass
    ------------   -----------------  -----------------  -----------------  -----------------
           O          0.043614505491     0.030776590150     0.000000000000    15.994914619560
           H          0.043614505491    -0.969223409850     0.000000000000     1.007825032070
           H         -0.735808357909     0.480776590150     0.000000000000     1.007825032070

  Basis Set: 6-31G
    Blend: 6-31G
  Basis Set: (6-31G AUX)
    Blend: CC-PVDZ-JKFIT

  -Total Gradient:
     Atom            X                  Y                   Z
    ------   -----------------  -----------------  -----------------
       1       -0.073627442601     0.073508529892     0.000000000000
       2        0.012528277773    -0.054306698324     0.000000000000
       3        0.061099164828    -0.019201831568     0.000000000000

*** Psi4 exiting successfully. Buy a developer a beer!
