                               Psi4 1.2a1.dev429

  ==> Input File <==

--------------------------------------------------------------------------
# density-fitted hartree fock energies and gradients with 6-31g
molecule h2o {
0 1
O 0.0000000000 0.0000000000 0.0000000000
H 0.0000000000 0.0000000000 1.4000000000
H 0.0000000000 0.8457233587 -0.3078181290
}

set basis 6-31g

gradient('mp2')
--------------------------------------------------------------------------

    Molecular point group: cs
  Charge       = 0
  Multiplicity = 1
  Basis Set: 6-31G
    Blend: 6-31G
  Basis Set: (6-31G AUX)
    Blend: CC-PVDZ-JKFIT

    Orbital Energies (a.u.)
    -----------------------

    Doubly Occupied:

       1Ap   -20.583424     2Ap    -1.312475     3Ap    -0.648850
       4Ap    -0.502734     1App   -0.495163

  @DF-RHF Final Energy:   -75.89211651237444

   => Energetics <=

    Nuclear Repulsion Energy =              8.0053408699112278
    One-Electron Energy =                -120.7096218813475872
    Two-Electron Energy =                  36.8121644990619288
    Total Energy =                        -75.8921165123744288
  Basis Set: (6-31G AUX)
    Blend: CC-PVDZ-RI
    Molecular point group: cs

    Geometry (in Angstrom), charge = 0, multiplicity = 1:

       Center              X                  Y                   Z               Mass
    ------------   -----------------  -----------------  -----------------  -----------------
           O          0.047324511256     0.061115697842     0.000000000000    15.994914619560
           H          0.047324511256    -1.338884302158     0.000000000000     1.007825032070
           H         -0.798398847444     0.368933826842     0.000000000000     1.007825032070

  Basis Set: 6-31G
    Blend: 6-31G
  Basis Set: (6-31G AUX)
    Blend: CC-PVDZ-JKFIT
  Basis Set: (6-31G AUX)
    Blend: CC-PVDZ-JKFIT
	 Reference Energy          =     -75.8921165123744430 [Eh]
	 Singles Energy            =      -0.0000000000000000 [Eh]
	 Same-Spin Energy          =      -0.0328006426361498 [Eh]
	 Opposite-Spin Energy      =      -0.1118408928778967 [Eh]
	 Correlation Energy        =      -0.1446415355140465 [Eh]
	 Total Energy              =     -76.0367580478884832 [Eh]

	 ================> DF-SCS-MP2 Energies <==================
	-----------------------------------------------------------
	 SCS Same-Spin Scale       =       0.3333333333333333 [-]
	 SCS Opposite-Spin Scale   =       1.2000000000000000 [-]
	 SCS Same-Spin Energy      =      -0.0109335475453833 [Eh]
	 SCS Opposite-Spin Energy  =      -0.1342090714534760 [Eh]
	 SCS Correlation Energy    =      -0.1451426189988593 [Eh]
	 SCS Total Energy          =     -76.0372591313733039 [Eh]
	-----------------------------------------------------------

  -Total Gradient:
     Atom            X                  Y                   Z
    ------   -----------------  -----------------  -----------------
       1       -0.112907790533     0.133202926660     0.000000000000
       2        0.009926341716    -0.112152691724    -0.000000000000
       3        0.102981448817    -0.021050234936     0.000000000000

*** Psi4 exiting successfully. Buy a developer a beer!
