                               Psi4 1.2a1.dev429

  ==> Input File <==

--------------------------------------------------------------------------
# density-fitted hartree fock energies and gradients with 6-31g
molecule h2o {
0 1
O 0.0000000000 0.0000000000 0.0000000000
H 0.0000000000 0.0000000000 0.8000000000
H 0.0000000000 0.8999026536 -1.0724622204
}

set basis 6-31g

gradient('mp2')
--------------------------------------------------------------------------

    Molecular point group: cs
  Charge       = 0
  Multiplicity = 1
  Basis Set: 6-31G
    Blend: 6-31G
  Basis Set: (6-31G AUX)
    Blend: CC-PVDZ-JKFIT

    Orbital Energies (a.u.)
    -----------------------

    Doubly Occupied:

       1Ap   -20.533653     2Ap    -1.321642     3Ap    -0.677137
       1App   -0.471163     4Ap    -0.466743

  @DF-RHF Final Energy:   -75.83253916550507

   => Energetics <=

    Nuclear Repulsion Energy =              8.5703620886067533
    One-Electron Energy =                -121.8651253849064915
    Two-Electron Energy =                  37.4622241307946666
    Total Energy =                        -75.8325391655050680
  Basis Set: (6-31G AUX)
    Blend: CC-PVDZ-RI
    Molecular point group: cs

    Geometry (in Angstrom), charge = 0, multiplicity = 1:

       Center              X                  Y                   Z               Mass
    ------------   -----------------  -----------------  -----------------  -----------------
           O          0.050356245718    -0.015246287434     0.000000000000    15.994914619560
           H          0.050356245718    -0.815246287434     0.000000000000     1.007825032070
           H         -0.849546407882     1.057215932966     0.000000000000     1.007825032070

  Basis Set: 6-31G
    Blend: 6-31G
  Basis Set: (6-31G AUX)
    Blend: CC-PVDZ-JKFIT
  Basis Set: (6-31G AUX)
    Blend: CC-PVDZ-JKFIT
	 Reference Energy          =     -75.8325391655050680 [Eh]
	 Singles Energy            =      -0.0000000000000000 [Eh]
	 Same-Spin Energy          =      -0.0319537131781048 [Eh]
	 Opposite-Spin Energy      =      -0.1058667601231649 [Eh]
	 Correlation Energy        =      -0.1378204733012698 [Eh]
	 Total Energy              =     -75.9703596388063431 [Eh]

	 ================> DF-SCS-MP2 Energies <==================
	-----------------------------------------------------------
	 SCS Same-Spin Scale       =       0.3333333333333333 [-]
	 SCS Opposite-Spin Scale   =       1.2000000000000000 [-]
	 SCS Same-Spin Energy      =      -0.0106512377260349 [Eh]
	 SCS Opposite-Spin Energy  =      -0.1270401121477979 [Eh]
	 SCS Correlation Energy    =      -0.1376913498738328 [Eh]
	 SCS Total Energy          =     -75.9702305153789013 [Eh]
	-----------------------------------------------------------

  -Total Gradient:
     Atom            X                  Y                   Z
    ------   -----------------  -----------------  -----------------
       1        0.008299354426    -0.434423420142     0.000000000000
       2        0.050115644779     0.320255076881    -0.000000000000
       3       -0.058414999205     0.114168343261    -0.000000000000

*** Psi4 exiting successfully. Buy a developer a beer!
