                               Psi4 1.3.1 release

  ==> Input File <==

--------------------------------------------------------------------------
# density fitted hartree fock
molecule h2o {
0 1
H 0.0000000000 0.0000000000 1.2000000000
H 0.0000000000 1.2000000000 0.0000000000
O 0.0000000000 0.0000000000 0.0000000000
}

set basis 6-31g
energy('hf')

--------------------------------------------------------------------------

    Molecular point group: c2v

    Geometry (in Angstrom), charge = 0, multiplicity = 1:

       Center              X                  Y                   Z               Mass
    ------------   -----------------  -----------------  -----------------  -----------------
         H            0.000000000000    -0.848528137424     0.753565218443     1.007825032230
         H           -0.000000000000     0.848528137424     0.753565218443     1.007825032230
         O            0.000000000000     0.000000000000    -0.094962918981    15.994914619570

  Charge       = 0
  Multiplicity = 1
  Basis Set: 6-31G
    Blend: 6-31G
  Basis Set: (6-31G AUX)
    Blend: CC-PVDZ-JKFIT

    Orbital Energies [Eh]
    ---------------------

    Doubly Occupied:

       1A1   -20.617554     2A1    -1.274889     1B2    -0.581568
       3A1    -0.548358     1B1    -0.504230

  @DF-RHF Final Energy:   -75.90714354861024

   => Energetics <=

    Nuclear Repulsion Energy =              7.3675168040284493
    One-Electron Energy =                -119.4961222353210388
    Two-Electron Energy =                  36.2214618826823482
    Total Energy =                        -75.9071435486102359

  Dipole Moment: [D]
     X:     0.0000      Y:     0.0000      Z:     2.8555     Total:     2.8555

*** Psi4 exiting successfully. Buy a developer a beer!
