                               Psi4 1.2a1.dev429

  ==> Input File <==

--------------------------------------------------------------------------
# density-fitted hartree fock energies and gradients with 6-31g
molecule h20 {
0 1
O 0.0000000000 0.0000000000 0.0000000000
H 0.0000000000 0.0000000000 1.3000000000
H 0.0000000000 0.2394141003 -0.6577848346
}

set basis 6-31g

gradient('hf')
--------------------------------------------------------------------------

    Molecular point group: cs
  Charge       = 0
  Multiplicity = 1
  Basis Set: 6-31G
    Blend: 6-31G
  Basis Set: (6-31G AUX)
    Blend: CC-PVDZ-JKFIT

    Orbital Energies (a.u.)
    -----------------------

    Doubly Occupied:

       1Ap   -20.496195     2Ap    -1.354342     3Ap    -0.723107
       1App   -0.461370     4Ap    -0.460924

  @DF-RHF Final Energy:   -75.74686686173618

   => Energetics <=

    Nuclear Repulsion Energy =              9.5725098554917167
    One-Electron Energy =                -123.6468778481783630
    Two-Electron Energy =                  38.3275011309504592
    Total Energy =                        -75.7468668617361800
    Molecular point group: cs

    Geometry (in Angstrom), charge = 0, multiplicity = 1:

       Center              X                  Y                   Z               Mass
    ------------   -----------------  -----------------  -----------------  -----------------
           O          0.013396999347     0.035936714425     0.000000000000    15.994914619560
           H          0.013396999347    -1.264063285575     0.000000000000     1.007825032070
           H         -0.226017100953     0.693721549025     0.000000000000     1.007825032070

  Basis Set: 6-31G
    Blend: 6-31G
  Basis Set: (6-31G AUX)
    Blend: CC-PVDZ-JKFIT

  -Total Gradient:
     Atom            X                  Y                   Z
    ------   -----------------  -----------------  -----------------
       1       -0.307846936333     0.840100734628     0.000000000000
       2        0.021213381994    -0.167768534830     0.000000000000
       3        0.286633554339    -0.672332199798     0.000000000000

*** Psi4 exiting successfully. Buy a developer a beer!
