                               Psi4 1.2a1.dev429

  ==> Input File <==

--------------------------------------------------------------------------
# density-fitted hartree fock energies and gradients with 6-31g
molecule h2o {
0 1
O 0.0000000000 0.0000000000 0.0000000000
H 0.0000000000 0.0000000000 0.9000000000
H 0.0000000000 1.5000000000 0.0000000000
}

set basis 6-31g

gradient('mp2')
--------------------------------------------------------------------------

    Molecular point group: cs
  Charge       = 0
  Multiplicity = 1
  Basis Set: 6-31G
    Blend: 6-31G
  Basis Set: (6-31G AUX)
    Blend: CC-PVDZ-JKFIT

    Orbital Energies (a.u.)
    -----------------------

    Doubly Occupied:

       1Ap   -20.606361     2Ap    -1.325991     3Ap    -0.642019
       1App   -0.509136     4Ap    -0.502578

  @DF-RHF Final Energy:   -75.86634956100544

   => Energetics <=

    Nuclear Repulsion Energy =              7.8285863307117136
    One-Electron Energy =                -120.2177035833480687
    Two-Electron Energy =                  36.5227676916309179
    Total Energy =                        -75.8663495610054355
  Basis Set: (6-31G AUX)
    Blend: CC-PVDZ-RI
    Molecular point group: cs

    Geometry (in Angstrom), charge = 0, multiplicity = 1:

       Center              X                  Y                   Z               Mass
    ------------   -----------------  -----------------  -----------------  -----------------
           O          0.083936154954     0.050361692973     0.000000000000    15.994914619560
           H          0.083936154954    -0.849638307027     0.000000000000     1.007825032070
           H         -1.416063845046     0.050361692973     0.000000000000     1.007825032070

  Basis Set: 6-31G
    Blend: 6-31G
  Basis Set: (6-31G AUX)
    Blend: CC-PVDZ-JKFIT
  Basis Set: (6-31G AUX)
    Blend: CC-PVDZ-JKFIT
	 Reference Energy          =     -75.8663495610054355 [Eh]
	 Singles Energy            =      -0.0000000000000000 [Eh]
	 Same-Spin Energy          =      -0.0336509106812151 [Eh]
	 Opposite-Spin Energy      =      -0.1180440968244616 [Eh]
	 Correlation Energy        =      -0.1516950075056767 [Eh]
	 Total Energy              =     -76.0180445685111152 [Eh]

	 ================> DF-SCS-MP2 Energies <==================
	-----------------------------------------------------------
	 SCS Same-Spin Scale       =       0.3333333333333333 [-]
	 SCS Opposite-Spin Scale   =       1.2000000000000000 [-]
	 SCS Same-Spin Energy      =      -0.0112169702270717 [Eh]
	 SCS Opposite-Spin Energy  =      -0.1416529161893539 [Eh]
	 SCS Correlation Energy    =      -0.1528698864164257 [Eh]
	 SCS Total Energy          =     -76.0192194474218610 [Eh]
	-----------------------------------------------------------

  -Total Gradient:
     Atom            X                  Y                   Z
    ------   -----------------  -----------------  -----------------
       1        0.109157487227    -0.106569658233     0.000000000000
       2       -0.011480603165     0.113458023011    -0.000000000000
       3       -0.097676884062    -0.006888364778     0.000000000000

*** Psi4 exiting successfully. Buy a developer a beer!
