                               Psi4 1.2a1.dev429

  ==> Input File <==

--------------------------------------------------------------------------
# density-fitted hartree fock energies and gradients with 6-31g
molecule h2o {
0 1
O 0.0000000000 0.0000000000 0.0000000000
H 0.0000000000 0.0000000000 1.2000000000
H 0.0000000000 0.7794228634 -0.4500000000
}

set basis 6-31g

gradient('mp2')
--------------------------------------------------------------------------

    Molecular point group: cs
  Charge       = 0
  Multiplicity = 1
  Basis Set: 6-31G
    Blend: 6-31G
  Basis Set: (6-31G AUX)
    Blend: CC-PVDZ-JKFIT

    Orbital Energies (a.u.)
    -----------------------

    Doubly Occupied:

       1Ap   -20.560885     2Ap    -1.315949     3Ap    -0.684963
       4Ap    -0.513716     1App   -0.488818

  @DF-RHF Final Energy:   -75.93873677038903

   => Energetics <=

    Nuclear Repulsion Energy =              8.5216327909740031
    One-Electron Energy =                -121.7920778084647964
    Two-Electron Energy =                  37.3317082471017727
    Total Energy =                        -75.9387367703890277
  Basis Set: (6-31G AUX)
    Blend: CC-PVDZ-RI
    Molecular point group: cs

    Geometry (in Angstrom), charge = 0, multiplicity = 1:

       Center              X                  Y                   Z               Mass
    ------------   -----------------  -----------------  -----------------  -----------------
           O          0.043614505491     0.041968077477     0.000000000000    15.994914619560
           H          0.043614505491    -1.158031922523     0.000000000000     1.007825032070
           H         -0.735808357909     0.491968077477     0.000000000000     1.007825032070

  Basis Set: 6-31G
    Blend: 6-31G
  Basis Set: (6-31G AUX)
    Blend: CC-PVDZ-JKFIT
  Basis Set: (6-31G AUX)
    Blend: CC-PVDZ-JKFIT
	 Reference Energy          =     -75.9387367703890277 [Eh]
	 Singles Energy            =      -0.0000000000000000 [Eh]
	 Same-Spin Energy          =      -0.0316414586963561 [Eh]
	 Opposite-Spin Energy      =      -0.1037784927260088 [Eh]
	 Correlation Energy        =      -0.1354199514223648 [Eh]
	 Total Energy              =     -76.0741567218113914 [Eh]

	 ================> DF-SCS-MP2 Energies <==================
	-----------------------------------------------------------
	 SCS Same-Spin Scale       =       0.3333333333333333 [-]
	 SCS Opposite-Spin Scale   =       1.2000000000000000 [-]
	 SCS Same-Spin Energy      =      -0.0105471528987854 [Eh]
	 SCS Opposite-Spin Energy  =      -0.1245341912712105 [Eh]
	 SCS Correlation Energy    =      -0.1350813441699959 [Eh]
	 SCS Total Energy          =     -76.0738181145590175 [Eh]
	-----------------------------------------------------------

  -Total Gradient:
     Atom            X                  Y                   Z
    ------   -----------------  -----------------  -----------------
       1       -0.110170374790     0.137878217273     0.000000000000
       2        0.017574887803    -0.111476498210     0.000000000000
       3        0.092595486986    -0.026401719064    -0.000000000000

*** Psi4 exiting successfully. Buy a developer a beer!
