                               Psi4 1.2a1.dev429

  ==> Input File <==

--------------------------------------------------------------------------
# density-fitted hartree fock energies and gradients with 6-31g
molecule h2o {
0 1
O 0.0000000000 0.0000000000 0.0000000000
H 0.0000000000 0.0000000000 0.9000000000
H 0.0000000000 0.8356238926 -0.9958577761
}

set basis 6-31g

gradient('mp2')
--------------------------------------------------------------------------

    Molecular point group: cs
  Charge       = 0
  Multiplicity = 1
  Basis Set: 6-31G
    Blend: 6-31G
  Basis Set: (6-31G AUX)
    Blend: CC-PVDZ-JKFIT

    Orbital Energies (a.u.)
    -----------------------

    Doubly Occupied:

       1Ap   -20.540756     2Ap    -1.285222     3Ap    -0.671255
       4Ap    -0.472169     1App   -0.469599

  @DF-RHF Final Energy:   -75.89234681787858

   => Energetics <=

    Nuclear Repulsion Energy =              8.2156859835500153
    One-Electron Energy =                -121.3380653474274027
    Two-Electron Energy =                  37.2300325459988102
    Total Energy =                        -75.8923468178785754
  Basis Set: (6-31G AUX)
    Blend: CC-PVDZ-RI
    Molecular point group: cs

    Geometry (in Angstrom), charge = 0, multiplicity = 1:

       Center              X                  Y                   Z               Mass
    ------------   -----------------  -----------------  -----------------  -----------------
           O          0.046759371022    -0.005363955432     0.000000000000    15.994914619560
           H          0.046759371022    -0.905363955432     0.000000000000     1.007825032070
           H         -0.788864521578     0.990493820668     0.000000000000     1.007825032070

  Basis Set: 6-31G
    Blend: 6-31G
  Basis Set: (6-31G AUX)
    Blend: CC-PVDZ-JKFIT
  Basis Set: (6-31G AUX)
    Blend: CC-PVDZ-JKFIT
	 Reference Energy          =     -75.8923468178785754 [Eh]
	 Singles Energy            =      -0.0000000000000000 [Eh]
	 Same-Spin Energy          =      -0.0324395547267405 [Eh]
	 Opposite-Spin Energy      =      -0.1056440361850396 [Eh]
	 Correlation Energy        =      -0.1380835909117801 [Eh]
	 Total Energy              =     -76.0304304087903517 [Eh]

	 ================> DF-SCS-MP2 Energies <==================
	-----------------------------------------------------------
	 SCS Same-Spin Scale       =       0.3333333333333333 [-]
	 SCS Opposite-Spin Scale   =       1.2000000000000000 [-]
	 SCS Same-Spin Energy      =      -0.0108131849089135 [Eh]
	 SCS Opposite-Spin Energy  =      -0.1267728434220475 [Eh]
	 SCS Correlation Energy    =      -0.1375860283309610 [Eh]
	 SCS Total Energy          =     -76.0299328462095332 [Eh]
	-----------------------------------------------------------

  -Total Gradient:
     Atom            X                  Y                   Z
    ------   -----------------  -----------------  -----------------
       1        0.013044107122    -0.204812302443     0.000000000000
       2        0.044473128022     0.088366612339    -0.000000000000
       3       -0.057517235144     0.116445690104     0.000000000000

*** Psi4 exiting successfully. Buy a developer a beer!
