                               Psi4 1.2a1.dev429

  ==> Input File <==

--------------------------------------------------------------------------
# density-fitted hartree fock energies and gradients with 6-31g
molecule h20 {
0 1
O 0.0000000000 0.0000000000 0.0000000000
H 0.0000000000 0.0000000000 0.8000000000
H 0.0000000000 1.1258330249 -0.6500000000
}

set basis 6-31g

gradient('hf')
--------------------------------------------------------------------------

    Molecular point group: cs
  Charge       = 0
  Multiplicity = 1
  Basis Set: 6-31G
    Blend: 6-31G
  Basis Set: (6-31G AUX)
    Blend: CC-PVDZ-JKFIT

    Orbital Energies (a.u.)
    -----------------------

    Doubly Occupied:

       1Ap   -20.556132     2Ap    -1.349899     3Ap    -0.692328
       4Ap    -0.506917     1App   -0.491053

  @DF-RHF Final Energy:   -75.88034024228718

   => Energetics <=

    Nuclear Repulsion Energy =              8.8365084093612207
    One-Electron Energy =                -122.2410391409939763
    Two-Electron Energy =                  37.5241904893455853
    Total Energy =                        -75.8803402422871756
    Molecular point group: cs

    Geometry (in Angstrom), charge = 0, multiplicity = 1:

       Center              X                  Y                   Z               Mass
    ------------   -----------------  -----------------  -----------------  -----------------
           O          0.062998730154     0.008393615495     0.000000000000    15.994914619560
           H          0.062998730154    -0.791606384505     0.000000000000     1.007825032070
           H         -1.062834294746     0.658393615495     0.000000000000     1.007825032070

  Basis Set: 6-31G
    Blend: 6-31G
  Basis Set: (6-31G AUX)
    Blend: CC-PVDZ-JKFIT

  -Total Gradient:
     Atom            X                  Y                   Z
    ------   -----------------  -----------------  -----------------
       1        0.090409994901    -0.382759640075     0.000000000000
       2        0.025379708187     0.297873985975     0.000000000000
       3       -0.115789703088     0.084885654100     0.000000000000

*** Psi4 exiting successfully. Buy a developer a beer!
