                               Psi4 1.3.1 release

  ==> Input File <==

--------------------------------------------------------------------------
# density fitted MP2
molecule h2o {
0 1
H 0.0000000000 0.0000000000 1.0250000000
H 0.0000000000 0.8427281322 -0.1109472634
O 0.0000000000 0.0000000000 0.0000000000
}

set basis 6-31g
energy('mp2')

--------------------------------------------------------------------------

    Molecular point group: cs

    Geometry (in Angstrom), charge = 0, multiplicity = 1:

       Center              X                  Y                   Z               Mass
    ------------   -----------------  -----------------  -----------------  -----------------
         H            0.047156906066    -0.973851951902     0.000000000000     1.007825032230
         H           -0.795571226134     0.162095311498     0.000000000000     1.007825032230
         O            0.047156906066     0.051148048098     0.000000000000    15.994914619570

  Charge       = 0
  Multiplicity = 1
  Basis Set: 6-31G
    Blend: 6-31G
  Basis Set: (6-31G AUX)
    Blend: CC-PVDZ-JKFIT

    Orbital Energies [Eh]
    ---------------------

    Doubly Occupied:

       1Ap   -20.560827     2Ap    -1.384452     3Ap    -0.709775
       4Ap    -0.575003     1App   -0.506510

  @DF-RHF Final Energy:   -75.96065095171281

   => Energetics <=

    Nuclear Repulsion Energy =              9.4847867647948725
    One-Electron Energy =                -123.4177428529545892
    Two-Electron Energy =                  37.9723051364469200
    Total Energy =                        -75.9606509517127932

  Dipole Moment: [D]
     X:    -2.0228      Y:    -1.8345      Z:     0.0000     Total:     2.7307

  Basis Set: (6-31G AUX)
    Blend: CC-PVDZ-RI
	 Reference Energy          =     -75.9606509517128075 [Eh]
	 Singles Energy            =      -0.0000000000000000 [Eh]
	 Same-Spin Energy          =      -0.0295575799734207 [Eh]
	 Opposite-Spin Energy      =      -0.0975873126794749 [Eh]
	 Correlation Energy        =      -0.1271448926528956 [Eh]
	 Total Energy              =     -76.0877958443657008 [Eh]

	 ================> DF-SCS-MP2 Energies <==================
	-----------------------------------------------------------
	 SCS Same-Spin Scale       =       0.3333333333333333 [-]
	 SCS Opposite-Spin Scale   =       1.2000000000000000 [-]
	 SCS Same-Spin Energy      =      -0.0098525266578069 [Eh]
	 SCS Opposite-Spin Energy  =      -0.1171047752153698 [Eh]
	 SCS Correlation Energy    =      -0.1269573018731767 [Eh]
	 SCS Total Energy          =     -76.0876082535859837 [Eh]
	-----------------------------------------------------------

*** Psi4 exiting successfully. Buy a developer a beer!
