                               Psi4 1.2a1.dev429

  ==> Input File <==

--------------------------------------------------------------------------
# density-fitted hartree fock energies and gradients with 6-31g
molecule h20 {
0 1
O 0.0000000000 0.0000000000 0.0000000000
H 0.0000000000 0.0000000000 1.0000000000
H 0.0000000000 0.6894399988 -0.5785088487
}

set basis 6-31g

gradient('hf')
--------------------------------------------------------------------------

    Molecular point group: cs
  Charge       = 0
  Multiplicity = 1
  Basis Set: 6-31G
    Blend: 6-31G
  Basis Set: (6-31G AUX)
    Blend: CC-PVDZ-JKFIT

    Orbital Energies (a.u.)
    -----------------------

    Doubly Occupied:

       1Ap   -20.537212     2Ap    -1.334951     3Ap    -0.750146
       4Ap    -0.514556     1App   -0.488240

  @DF-RHF Final Energy:   -75.97207896105613

   => Energetics <=

    Nuclear Repulsion Energy =              9.2444291207332103
    One-Electron Energy =                -123.1828053913604464
    Two-Electron Energy =                  37.9662973095711038
    Total Energy =                        -75.9720789610561269
    Molecular point group: cs

    Geometry (in Angstrom), charge = 0, multiplicity = 1:

       Center              X                  Y                   Z               Mass
    ------------   -----------------  -----------------  -----------------  -----------------
           O          0.038579295047     0.023585564392     0.000000000000    15.994914619560
           H          0.038579295047    -0.976414435608     0.000000000000     1.007825032070
           H         -0.650860703753     0.602094413092     0.000000000000     1.007825032070

  Basis Set: 6-31G
    Blend: 6-31G
  Basis Set: (6-31G AUX)
    Blend: CC-PVDZ-JKFIT

  -Total Gradient:
     Atom            X                  Y                   Z
    ------   -----------------  -----------------  -----------------
       1       -0.083328485926     0.077629402324     0.000000000000
       2        0.023049649552    -0.060481875888     0.000000000000
       3        0.060278836374    -0.017147526435     0.000000000000

*** Psi4 exiting successfully. Buy a developer a beer!
