                               Psi4 1.2a1.dev429

  ==> Input File <==

--------------------------------------------------------------------------
# density-fitted hartree fock energies and gradients with 6-31g
molecule h2o {
0 1
O 0.0000000000 0.0000000000 0.0000000000
H 0.0000000000 0.0000000000 1.4000000000
H 0.0000000000 0.6000000000 -1.0392304845
}

set basis 6-31g

gradient('mp2')
--------------------------------------------------------------------------

    Molecular point group: cs
  Charge       = 0
  Multiplicity = 1
  Basis Set: 6-31G
    Blend: 6-31G
  Basis Set: (6-31G AUX)
    Blend: CC-PVDZ-JKFIT

    Orbital Energies (a.u.)
    -----------------------

    Doubly Occupied:

       1Ap   -20.554994     2Ap    -1.196993     3Ap    -0.573614
       1App   -0.450768     4Ap    -0.438307

  @DF-RHF Final Energy:   -75.81594133715575

   => Energetics <=

    Nuclear Repulsion Energy =              6.7623825227169521
    One-Electron Energy =                -118.7272949281672823
    Two-Electron Energy =                  36.1489710682945926
    Total Energy =                        -75.8159413371557491
  Basis Set: (6-31G AUX)
    Blend: CC-PVDZ-RI
    Molecular point group: cs

    Geometry (in Angstrom), charge = 0, multiplicity = 1:

       Center              X                  Y                   Z               Mass
    ------------   -----------------  -----------------  -----------------  -----------------
           O          0.033574461982     0.020187737304     0.000000000000    15.994914619560
           H          0.033574461982    -1.379812262696     0.000000000000     1.007825032070
           H         -0.566425538018     1.059418221804     0.000000000000     1.007825032070

  Basis Set: 6-31G
    Blend: 6-31G
  Basis Set: (6-31G AUX)
    Blend: CC-PVDZ-JKFIT
  Basis Set: (6-31G AUX)
    Blend: CC-PVDZ-JKFIT
	 Reference Energy          =     -75.8159413371557491 [Eh]
	 Singles Energy            =      -0.0000000000000000 [Eh]
	 Same-Spin Energy          =      -0.0354577836164057 [Eh]
	 Opposite-Spin Energy      =      -0.1176955455553919 [Eh]
	 Correlation Energy        =      -0.1531533291717976 [Eh]
	 Total Energy              =     -75.9690946663275497 [Eh]

	 ================> DF-SCS-MP2 Energies <==================
	-----------------------------------------------------------
	 SCS Same-Spin Scale       =       0.3333333333333333 [-]
	 SCS Opposite-Spin Scale   =       1.2000000000000000 [-]
	 SCS Same-Spin Energy      =      -0.0118192612054686 [Eh]
	 SCS Opposite-Spin Energy  =      -0.1412346546664703 [Eh]
	 SCS Correlation Energy    =      -0.1530539158719389 [Eh]
	 SCS Total Energy          =     -75.9689952530276855 [Eh]
	-----------------------------------------------------------

  -Total Gradient:
     Atom            X                  Y                   Z
    ------   -----------------  -----------------  -----------------
       1       -0.026204953367    -0.000128793336     0.000000000000
       2        0.038268527530    -0.110059159301     0.000000000000
       3       -0.012063574162     0.110187952636    -0.000000000000

*** Psi4 exiting successfully. Buy a developer a beer!
