                               Psi4 1.2a1.dev429

  ==> Input File <==

--------------------------------------------------------------------------
# density-fitted hartree fock energies and gradients with 6-31g
molecule h2o {
0 1
O 0.0000000000 0.0000000000 0.0000000000
H 0.0000000000 0.0000000000 1.5000000000
H 0.0000000000 0.3762221577 -1.0336618829
}

set basis 6-31g

gradient('mp2')
--------------------------------------------------------------------------

    Molecular point group: cs
  Charge       = 0
  Multiplicity = 1
  Basis Set: 6-31G
    Blend: 6-31G
  Basis Set: (6-31G AUX)
    Blend: CC-PVDZ-JKFIT

    Orbital Energies (a.u.)
    -----------------------

    Doubly Occupied:

       1Ap   -20.529354     2Ap    -1.192585     3Ap    -0.573846
       1App   -0.435664     4Ap    -0.422516

  @DF-RHF Final Energy:   -75.79747011268111

   => Energetics <=

    Nuclear Repulsion Energy =              6.8774334312028333
    One-Electron Energy =                -119.0418748001821285
    Two-Electron Energy =                  36.3669712562981857
    Total Energy =                        -75.7974701126811112
  Basis Set: (6-31G AUX)
    Blend: CC-PVDZ-RI
    Molecular point group: cs

    Geometry (in Angstrom), charge = 0, multiplicity = 1:

       Center              X                  Y                   Z               Mass
    ------------   -----------------  -----------------  -----------------  -----------------
           O          0.021052427551     0.026095085639     0.000000000000    15.994914619560
           H          0.021052427551    -1.473904914361     0.000000000000     1.007825032070
           H         -0.355169730149     1.059756968539     0.000000000000     1.007825032070

  Basis Set: 6-31G
    Blend: 6-31G
  Basis Set: (6-31G AUX)
    Blend: CC-PVDZ-JKFIT
  Basis Set: (6-31G AUX)
    Blend: CC-PVDZ-JKFIT
	 Reference Energy          =     -75.7974701126811112 [Eh]
	 Singles Energy            =      -0.0000000000000000 [Eh]
	 Same-Spin Energy          =      -0.0350809763924541 [Eh]
	 Opposite-Spin Energy      =      -0.1154291588272679 [Eh]
	 Correlation Energy        =      -0.1505101352197220 [Eh]
	 Total Energy              =     -75.9479802479008299 [Eh]

	 ================> DF-SCS-MP2 Energies <==================
	-----------------------------------------------------------
	 SCS Same-Spin Scale       =       0.3333333333333333 [-]
	 SCS Opposite-Spin Scale   =       1.2000000000000000 [-]
	 SCS Same-Spin Energy      =      -0.0116936587974847 [Eh]
	 SCS Opposite-Spin Energy  =      -0.1385149905927214 [Eh]
	 SCS Correlation Energy    =      -0.1502086493902061 [Eh]
	 SCS Total Energy          =     -75.9476787620713196 [Eh]
	-----------------------------------------------------------

  -Total Gradient:
     Atom            X                  Y                   Z
    ------   -----------------  -----------------  -----------------
       1       -0.054433419454     0.017744565845     0.000000000000
       2        0.035829014485    -0.109479893477    -0.000000000000
       3        0.018604404969     0.091735327631    -0.000000000000

*** Psi4 exiting successfully. Buy a developer a beer!
