                               Psi4 1.2a1.dev429

  ==> Input File <==

--------------------------------------------------------------------------
# density-fitted hartree fock energies and gradients with 6-31g
molecule h2o {
0 1
O 0.0000000000 0.0000000000 0.0000000000
H 0.0000000000 0.0000000000 1.5000000000
H 0.0000000000 1.0724622204 -0.8999026536
}

set basis 6-31g

gradient('mp2')
--------------------------------------------------------------------------

    Molecular point group: cs
  Charge       = 0
  Multiplicity = 1
  Basis Set: 6-31G
    Blend: 6-31G
  Basis Set: (6-31G AUX)
    Blend: CC-PVDZ-JKFIT

    Orbital Energies (a.u.)
    -----------------------

    Doubly Occupied:

       1Ap   -20.612804     2Ap    -1.201423     3Ap    -0.525974
       1App   -0.479803     4Ap    -0.453071

  @DF-RHF Final Energy:   -75.77039489190537

   => Energetics <=

    Nuclear Repulsion Energy =              6.0474609606630709
    One-Electron Energy =                -117.0895603747066644
    Two-Electron Energy =                  35.2717045221382222
    Total Energy =                        -75.7703948919053687
  Basis Set: (6-31G AUX)
    Blend: CC-PVDZ-RI
    Molecular point group: cs

    Geometry (in Angstrom), charge = 0, multiplicity = 1:

       Center              X                  Y                   Z               Mass
    ------------   -----------------  -----------------  -----------------  -----------------
           O          0.060012236743     0.033579909237     0.000000000000    15.994914619560
           H          0.060012236743    -1.466420090763     0.000000000000     1.007825032070
           H         -1.012449983657     0.933482562837     0.000000000000     1.007825032070

  Basis Set: 6-31G
    Blend: 6-31G
  Basis Set: (6-31G AUX)
    Blend: CC-PVDZ-JKFIT
  Basis Set: (6-31G AUX)
    Blend: CC-PVDZ-JKFIT
	 Reference Energy          =     -75.7703948919053687 [Eh]
	 Singles Energy            =      -0.0000000000000000 [Eh]
	 Same-Spin Energy          =      -0.0383800071238719 [Eh]
	 Opposite-Spin Energy      =      -0.1354625172842606 [Eh]
	 Correlation Energy        =      -0.1738425244081326 [Eh]
	 Total Energy              =     -75.9442374163134986 [Eh]

	 ================> DF-SCS-MP2 Energies <==================
	-----------------------------------------------------------
	 SCS Same-Spin Scale       =       0.3333333333333333 [-]
	 SCS Opposite-Spin Scale   =       1.2000000000000000 [-]
	 SCS Same-Spin Energy      =      -0.0127933357079573 [Eh]
	 SCS Opposite-Spin Energy  =      -0.1625550207411127 [Eh]
	 SCS Correlation Energy    =      -0.1753483564490701 [Eh]
	 SCS Total Energy          =     -75.9457432483544324 [Eh]
	-----------------------------------------------------------

  -Total Gradient:
     Atom            X                  Y                   Z
    ------   -----------------  -----------------  -----------------
       1        0.028567753386     0.008304218288     0.000000000000
       2        0.027551341369    -0.093928434484    -0.000000000000
       3       -0.056119094755     0.085624216195    -0.000000000000

*** Psi4 exiting successfully. Buy a developer a beer!
