                               Psi4 1.2a1.dev429

  ==> Input File <==

--------------------------------------------------------------------------
# density-fitted hartree fock energies and gradients with 6-31g
molecule h20 {
0 1
O 0.0000000000 0.0000000000 0.0000000000
H 0.0000000000 0.0000000000 0.7000000000
H 0.0000000000 0.1736481777 -0.9848077530
}

set basis 6-31g

gradient('hf')
--------------------------------------------------------------------------

    Molecular point group: cs
  Charge       = 0
  Multiplicity = 1
  Basis Set: 6-31G
    Blend: 6-31G
  Basis Set: (6-31G AUX)
    Blend: CC-PVDZ-JKFIT

    Orbital Energies (a.u.)
    -----------------------

    Doubly Occupied:

       1Ap   -20.497238     2Ap    -1.385294     3Ap    -0.843116
       4Ap    -0.487389     1App   -0.486332

  @DF-RHF Final Energy:   -75.82464580913553

   => Energetics <=

    Nuclear Repulsion Energy =             10.5935897134101520
    One-Electron Energy =                -125.4377351681536226
    Two-Electron Energy =                  39.0194996456079437
    Total Energy =                        -75.8246458091355180
    Molecular point group: cs

    Geometry (in Angstrom), charge = 0, multiplicity = 1:

       Center              X                  Y                   Z               Mass
    ------------   -----------------  -----------------  -----------------  -----------------
           O          0.009716906901    -0.015937111792     0.000000000000    15.994914619560
           H          0.009716906901    -0.715937111792     0.000000000000     1.007825032070
           H         -0.163931270799     0.968870641208     0.000000000000     1.007825032070

  Basis Set: 6-31G
    Blend: 6-31G
  Basis Set: (6-31G AUX)
    Blend: CC-PVDZ-JKFIT

  -Total Gradient:
     Atom            X                  Y                   Z
    ------   -----------------  -----------------  -----------------
       1       -0.009640444230    -0.802702539363     0.000000000000
       2        0.014934840199     0.712472102781     0.000000000000
       3       -0.005294395968     0.090230436581     0.000000000000

*** Psi4 exiting successfully. Buy a developer a beer!
