                               Psi4 1.2a1.dev429

  ==> Input File <==

--------------------------------------------------------------------------
# density-fitted hartree fock energies and gradients with 6-31g
molecule h2o {
0 1
O 0.0000000000 0.0000000000 0.0000000000
H 0.0000000000 0.0000000000 0.8000000000
H 0.0000000000 0.9396926208 -0.3420201433
}

set basis 6-31g

gradient('mp2')
--------------------------------------------------------------------------

    Molecular point group: cs
  Charge       = 0
  Multiplicity = 1
  Basis Set: 6-31G
    Blend: 6-31G
  Basis Set: (6-31G AUX)
    Blend: CC-PVDZ-JKFIT

    Orbital Energies (a.u.)
    -----------------------

    Doubly Occupied:

       1Ap   -20.544760     2Ap    -1.395145     3Ap    -0.754351
       4Ap    -0.556919     1App   -0.503566

  @DF-RHF Final Energy:   -75.94793161912654

   => Energetics <=

    Nuclear Repulsion Energy =              9.8830007504743023
    One-Electron Energy =                -124.1523811534757442
    Two-Electron Energy =                  38.3214487838748994
    Total Energy =                        -75.9479316191265355
  Basis Set: (6-31G AUX)
    Blend: CC-PVDZ-RI
    Molecular point group: cs

    Geometry (in Angstrom), charge = 0, multiplicity = 1:

       Center              X                  Y                   Z               Mass
    ------------   -----------------  -----------------  -----------------  -----------------
           O          0.052582790286     0.025627378812     0.000000000000    15.994914619560
           H          0.052582790286    -0.774372621188     0.000000000000     1.007825032070
           H         -0.887109830514     0.367647522112     0.000000000000     1.007825032070

  Basis Set: 6-31G
    Blend: 6-31G
  Basis Set: (6-31G AUX)
    Blend: CC-PVDZ-JKFIT
  Basis Set: (6-31G AUX)
    Blend: CC-PVDZ-JKFIT
	 Reference Energy          =     -75.9479316191265355 [Eh]
	 Singles Energy            =      -0.0000000000000000 [Eh]
	 Same-Spin Energy          =      -0.0288382424335800 [Eh]
	 Opposite-Spin Energy      =      -0.0941414350940713 [Eh]
	 Correlation Energy        =      -0.1229796775276513 [Eh]
	 Total Energy              =     -76.0709112966541880 [Eh]

	 ================> DF-SCS-MP2 Energies <==================
	-----------------------------------------------------------
	 SCS Same-Spin Scale       =       0.3333333333333333 [-]
	 SCS Opposite-Spin Scale   =       1.2000000000000000 [-]
	 SCS Same-Spin Energy      =      -0.0096127474778600 [Eh]
	 SCS Opposite-Spin Energy  =      -0.1129697221128856 [Eh]
	 SCS Correlation Energy    =      -0.1225824695907456 [Eh]
	 SCS Total Energy          =     -76.0705140887172746 [Eh]
	-----------------------------------------------------------

  -Total Gradient:
     Atom            X                  Y                   Z
    ------   -----------------  -----------------  -----------------
       1        0.033658497739    -0.325063616756    -0.000000000000
       2       -0.006201826129     0.320350082381     0.000000000000
       3       -0.027456671610     0.004713534375     0.000000000000

*** Psi4 exiting successfully. Buy a developer a beer!
