                               Psi4 1.2a1.dev429

  ==> Input File <==

--------------------------------------------------------------------------
# density-fitted hartree fock energies and gradients with 6-31g
molecule h2o {
0 1
O 0.0000000000 0.0000000000 0.0000000000
H 0.0000000000 0.0000000000 1.2000000000
H 0.0000000000 0.1562833599 -0.8863269777
}

set basis 6-31g

gradient('mp2')
--------------------------------------------------------------------------

    Molecular point group: cs
  Charge       = 0
  Multiplicity = 1
  Basis Set: 6-31G
    Blend: 6-31G
  Basis Set: (6-31G AUX)
    Blend: CC-PVDZ-JKFIT

    Orbital Energies (a.u.)
    -----------------------

    Doubly Occupied:

       1Ap   -20.503312     2Ap    -1.264049     3Ap    -0.697794
       4Ap    -0.449778     1App   -0.449629

  @DF-RHF Final Energy:   -75.89095215952703

   => Energetics <=

    Nuclear Repulsion Energy =              8.4845774171480652
    One-Electron Energy =                -122.0219351437533533
    Two-Electron Energy =                  37.6464055670782614
    Total Energy =                        -75.8909521595270320
  Basis Set: (6-31G AUX)
    Blend: CC-PVDZ-RI
    Molecular point group: cs

    Geometry (in Angstrom), charge = 0, multiplicity = 1:

       Center              X                  Y                   Z               Mass
    ------------   -----------------  -----------------  -----------------  -----------------
           O          0.008745216209     0.017552338270     0.000000000000    15.994914619560
           H          0.008745216209    -1.182447661730     0.000000000000     1.007825032070
           H         -0.147538143691     0.903879315970     0.000000000000     1.007825032070

  Basis Set: 6-31G
    Blend: 6-31G
  Basis Set: (6-31G AUX)
    Blend: CC-PVDZ-JKFIT
  Basis Set: (6-31G AUX)
    Blend: CC-PVDZ-JKFIT
	 Reference Energy          =     -75.8909521595270320 [Eh]
	 Singles Energy            =      -0.0000000000000000 [Eh]
	 Same-Spin Energy          =      -0.0316816709692856 [Eh]
	 Opposite-Spin Energy      =      -0.0993000170778961 [Eh]
	 Correlation Energy        =      -0.1309816880471816 [Eh]
	 Total Energy              =     -76.0219338475742177 [Eh]

	 ================> DF-SCS-MP2 Energies <==================
	-----------------------------------------------------------
	 SCS Same-Spin Scale       =       0.3333333333333333 [-]
	 SCS Opposite-Spin Scale   =       1.2000000000000000 [-]
	 SCS Same-Spin Energy      =      -0.0105605569897619 [Eh]
	 SCS Opposite-Spin Energy  =      -0.1191600204934753 [Eh]
	 SCS Correlation Energy    =      -0.1297205774832371 [Eh]
	 SCS Total Energy          =     -76.0206727370102726 [Eh]
	-----------------------------------------------------------

  -Total Gradient:
     Atom            X                  Y                   Z
    ------   -----------------  -----------------  -----------------
       1       -0.046406863933     0.205682918919     0.000000000000
       2        0.014926482543    -0.141759720437     0.000000000000
       3        0.031480381390    -0.063923198482    -0.000000000000

*** Psi4 exiting successfully. Buy a developer a beer!
