                               Psi4 1.2a1.dev429

  ==> Input File <==

--------------------------------------------------------------------------
# density-fitted hartree fock energies and gradients with 6-31g
molecule h20 {
0 1
O 0.0000000000 0.0000000000 0.0000000000
O 0.0000000000 0.0000000000 1.1181818182
}

set basis 6-31g

gradient('hf')
--------------------------------------------------------------------------

    Molecular point group: d2h
  Charge       = 0
  Multiplicity = 1
  Basis Set: 6-31G
    Blend: 6-31G
  Basis Set: (6-31G AUX)
    Blend: CC-PVDZ-JKFIT

    Orbital Energies (a.u.)
    -----------------------

    Doubly Occupied:

       1Ag   -20.742150     1B1u  -20.740879     2Ag    -1.790933
       2B1u   -1.070916     1B2u   -0.819708     3Ag    -0.753914
       1B3u   -0.702509     1B3g   -0.450522

  @DF-RHF Final Energy:  -149.45010794352169

   => Energetics <=

    Nuclear Repulsion Energy =             30.2878662472603501
    One-Electron Energy =                -265.3328871235283373
    Two-Electron Energy =                  85.5949129327462970
    Total Energy =                       -149.4501079435216866
    Molecular point group: d2h

    Geometry (in Angstrom), charge = 0, multiplicity = 1:

       Center              X                  Y                   Z               Mass
    ------------   -----------------  -----------------  -----------------  -----------------
           O          0.000000000000     0.000000000000    -0.559090909100    15.994914619560
           O          0.000000000000     0.000000000000     0.559090909100    15.994914619560

  Basis Set: 6-31G
    Blend: 6-31G
  Basis Set: (6-31G AUX)
    Blend: CC-PVDZ-JKFIT

  -Total Gradient:
     Atom            X                  Y                   Z
    ------   -----------------  -----------------  -----------------
       1        0.000000000000     0.000000000000     0.177380815294
       2       -0.000000000000     0.000000000000    -0.177380815294

*** Psi4 exiting successfully. Buy a developer a beer!
