                               Psi4 1.2a1.dev429

  ==> Input File <==

--------------------------------------------------------------------------
# density-fitted hartree fock energies and gradients with 6-31g
molecule o2 {
0 3
O 0.0000000000 0.0000000000 0.0000000000
O 0.0000000000 0.0000000000 1.1181818182
}

set basis 6-31g
set reference rohf

gradient('scf')
--------------------------------------------------------------------------

    Molecular point group: d2h
  Charge       = 0
  Multiplicity = 3
  Basis Set: 6-31G
    Blend: 6-31G
  Basis Set: (6-31G AUX)
    Blend: CC-PVDZ-JKFIT

    Orbital Energies (a.u.)
    -----------------------

    Doubly Occupied:

       1Ag   -20.732178     1B1u  -20.730919     2Ag    -1.785240
       2B1u   -1.066629     1B2u   -0.756289     1B3u   -0.756289
       3Ag    -0.749350

    Singly Occupied:

       1B3g   -0.189263     1B2g   -0.189263

  @DF-ROHF Final Energy:  -149.51793508063298

   => Energetics <=

    Nuclear Repulsion Energy =             30.2878662472603501
    One-Electron Energy =                -265.4246304834746297
    Two-Electron Energy =                  85.6188291555813095
    Total Energy =                       -149.5179350806329808
    Molecular point group: d2h

    Geometry (in Angstrom), charge = 0, multiplicity = 3:

       Center              X                  Y                   Z               Mass
    ------------   -----------------  -----------------  -----------------  -----------------
           O          0.000000000000     0.000000000000    -0.559090909100    15.994914619560
           O          0.000000000000     0.000000000000     0.559090909100    15.994914619560

  Basis Set: 6-31G
    Blend: 6-31G
  Basis Set: (6-31G AUX)
    Blend: CC-PVDZ-JKFIT

  -Total Gradient:
     Atom            X                  Y                   Z
    ------   -----------------  -----------------  -----------------
       1        0.000000000000     0.000000000000     0.169935418210
       2       -0.000000000000     0.000000000000    -0.169935418210

*** Psi4 exiting successfully. Buy a developer a beer!
