                               Psi4 1.2a1.dev429

  ==> Input File <==

--------------------------------------------------------------------------
# density-fitted hartree fock energies and gradients with 6-31g
molecule o2 {
0 3
O 0.0000000000 0.0000000000 0.0000000000
O 0.0000000000 0.0000000000 1.4428571429
}

set basis 6-31g
set reference rohf

energy('scf')
--------------------------------------------------------------------------

    Molecular point group: d2h

    Geometry (in Angstrom), charge = 0, multiplicity = 3:

       Center              X                  Y                   Z               Mass
    ------------   -----------------  -----------------  -----------------  -----------------
           O          0.000000000000     0.000000000000    -0.721428571450    15.994914619560
           O          0.000000000000     0.000000000000     0.721428571450    15.994914619560

  Charge       = 0
  Multiplicity = 3
  Basis Set: 6-31G
    Blend: 6-31G
  Basis Set: (6-31G AUX)
    Blend: CC-PVDZ-JKFIT

    Orbital Energies (a.u.)
    -----------------------

    Doubly Occupied:

       1Ag   -20.783123     1B1u  -20.782700     2Ag    -1.511528
       2B1u   -1.176168     3Ag    -0.656847     1B2u   -0.638971
       1B3u   -0.638971

    Singly Occupied:

       1B3g   -0.301673     1B2g   -0.301673

  @DF-ROHF Final Energy:  -149.46331508172165

   => Energetics <=

    Nuclear Repulsion Energy =             23.4724147961661664
    One-Electron Energy =                -252.2688561906068401
    Two-Electron Energy =                  79.3331263127190311
    Total Energy =                       -149.4633150817216460
*** Psi4 exiting successfully. Buy a developer a beer!
