                               Psi4 1.2a1.dev429

  ==> Input File <==

--------------------------------------------------------------------------
# density-fitted hartree fock energies and gradients with 6-31g
molecule h2o {
0 1
O 0.0000000000 0.0000000000 0.0000000000
H 0.0000000000 0.0000000000 1.3000000000
H 0.0000000000 0.5130302150 -1.4095389312
}

set basis 6-31g

gradient('mp2')
--------------------------------------------------------------------------

    Molecular point group: cs
  Charge       = 0
  Multiplicity = 1
  Basis Set: 6-31G
    Blend: 6-31G
  Basis Set: (6-31G AUX)
    Blend: CC-PVDZ-JKFIT

    Orbital Energies (a.u.)
    -----------------------

    Doubly Occupied:

       1Ap   -20.545052     2Ap    -1.166289     3Ap    -0.529892
       1App   -0.435674     4Ap    -0.418778

  @DF-RHF Final Energy:   -75.75272222884311

   => Energetics <=

    Nuclear Repulsion Energy =              6.2706457206524169
    One-Electron Energy =                -117.8553656843637611
    Two-Electron Energy =                  35.8319977348682457
    Total Energy =                        -75.7527222288431119
  Basis Set: (6-31G AUX)
    Blend: CC-PVDZ-RI
    Molecular point group: cs

    Geometry (in Angstrom), charge = 0, multiplicity = 1:

       Center              X                  Y                   Z               Mass
    ------------   -----------------  -----------------  -----------------  -----------------
           O          0.028707855748    -0.006129517802     0.000000000000    15.994914619560
           H          0.028707855748    -1.306129517802     0.000000000000     1.007825032070
           H         -0.484322359252     1.403409413398     0.000000000000     1.007825032070

  Basis Set: 6-31G
    Blend: 6-31G
  Basis Set: (6-31G AUX)
    Blend: CC-PVDZ-JKFIT
  Basis Set: (6-31G AUX)
    Blend: CC-PVDZ-JKFIT
	 Reference Energy          =     -75.7527222288431119 [Eh]
	 Singles Energy            =      -0.0000000000000000 [Eh]
	 Same-Spin Energy          =      -0.0362031091552197 [Eh]
	 Opposite-Spin Energy      =      -0.1215426330028136 [Eh]
	 Correlation Energy        =      -0.1577457421580334 [Eh]
	 Total Energy              =     -75.9104679710011396 [Eh]

	 ================> DF-SCS-MP2 Energies <==================
	-----------------------------------------------------------
	 SCS Same-Spin Scale       =       0.3333333333333333 [-]
	 SCS Opposite-Spin Scale   =       1.2000000000000000 [-]
	 SCS Same-Spin Energy      =      -0.0120677030517399 [Eh]
	 SCS Opposite-Spin Energy  =      -0.1458511596033764 [Eh]
	 SCS Correlation Energy    =      -0.1579188626551163 [Eh]
	 SCS Total Energy          =     -75.9106410914982348 [Eh]
	-----------------------------------------------------------

  -Total Gradient:
     Atom            X                  Y                   Z
    ------   -----------------  -----------------  -----------------
       1       -0.051138789834    -0.000604320755    -0.000000000000
       2        0.046995614846    -0.107097584176     0.000000000000
       3        0.004143174988     0.107701904931     0.000000000000

*** Psi4 exiting successfully. Buy a developer a beer!
