                               Psi4 1.2a1.dev429

  ==> Input File <==

--------------------------------------------------------------------------
# density-fitted hartree fock energies and gradients with 6-31g
molecule h20 {
0 1
O 0.0000000000 0.0000000000 0.0000000000
H 0.0000000000 0.0000000000 1.3000000000
H 0.0000000000 1.0000000000 0.0000000000
}

set basis 6-31g

gradient('hf')
--------------------------------------------------------------------------

    Molecular point group: cs
  Charge       = 0
  Multiplicity = 1
  Basis Set: 6-31G
    Blend: 6-31G
  Basis Set: (6-31G AUX)
    Blend: CC-PVDZ-JKFIT

    Orbital Energies (a.u.)
    -----------------------

    Doubly Occupied:

       1Ap   -20.605925     2Ap    -1.303966     3Ap    -0.620904
       4Ap    -0.539163     1App   -0.505650

  @DF-RHF Final Energy:   -75.91634469976481

   => Energetics <=

    Nuclear Repulsion Energy =              7.8125378369783398
    One-Electron Energy =                -120.3065497617203619
    Two-Electron Energy =                  36.5776672249772119
    Total Energy =                        -75.9163446997648066
    Molecular point group: cs

    Geometry (in Angstrom), charge = 0, multiplicity = 1:

       Center              X                  Y                   Z               Mass
    ------------   -----------------  -----------------  -----------------  -----------------
           O          0.055957436636     0.072744667627     0.000000000000    15.994914619560
           H          0.055957436636    -1.227255332373     0.000000000000     1.007825032070
           H         -0.944042563364     0.072744667627     0.000000000000     1.007825032070

  Basis Set: 6-31G
    Blend: 6-31G
  Basis Set: (6-31G AUX)
    Blend: CC-PVDZ-JKFIT

  -Total Gradient:
     Atom            X                  Y                   Z
    ------   -----------------  -----------------  -----------------
       1        0.050141320980     0.144268443151     0.000000000000
       2       -0.016566833789    -0.122731561466     0.000000000000
       3       -0.033574487191    -0.021536881686     0.000000000000

*** Psi4 exiting successfully. Buy a developer a beer!
