                               Psi4 1.2a1.dev429

  ==> Input File <==

--------------------------------------------------------------------------
# density-fitted hartree fock energies and gradients with 6-31g
molecule h2o {
0 1
O 0.0000000000 0.0000000000 0.0000000000
H 0.0000000000 0.0000000000 1.5000000000
H 0.0000000000 0.0000000000 -1.1000000000
}

set basis 6-31g

gradient('mp2')
--------------------------------------------------------------------------

    Molecular point group: c2v
  Charge       = 0
  Multiplicity = 1
  Basis Set: 6-31G
    Blend: 6-31G
  Basis Set: (6-31G AUX)
    Blend: CC-PVDZ-JKFIT

    Orbital Energies (a.u.)
    -----------------------

    Doubly Occupied:

       1A1   -20.496907     2A1    -1.168566     3A1    -0.559369
       1B1    -0.412064     1B2    -0.412064

  @DF-RHF Final Energy:   -75.78168788738827

   => Energetics <=

    Nuclear Repulsion Energy =              6.8743696584430527
    One-Electron Energy =                -119.2141754883284221
    Two-Electron Energy =                  36.5581179424970841
    Total Energy =                        -75.7816878873882729
  Basis Set: (6-31G AUX)
    Blend: CC-PVDZ-RI
    Molecular point group: c2v

    Geometry (in Angstrom), charge = 0, multiplicity = 1:

       Center              X                  Y                   Z               Mass
    ------------   -----------------  -----------------  -----------------  -----------------
           O          0.000000000000     0.000000000000    -0.022382974654    15.994914619560
           H          0.000000000000     0.000000000000     1.477617025346     1.007825032070
           H          0.000000000000     0.000000000000    -1.122382974654     1.007825032070

  Basis Set: 6-31G
    Blend: 6-31G
  Basis Set: (6-31G AUX)
    Blend: CC-PVDZ-JKFIT
  Basis Set: (6-31G AUX)
    Blend: CC-PVDZ-JKFIT
	 Reference Energy          =     -75.7816878873882729 [Eh]
	 Singles Energy            =      -0.0000000000000000 [Eh]
	 Same-Spin Energy          =      -0.0342946178527039 [Eh]
	 Opposite-Spin Energy      =      -0.1086958542317287 [Eh]
	 Correlation Energy        =      -0.1429904720844327 [Eh]
	 Total Energy              =     -75.9246783594727077 [Eh]

	 ================> DF-SCS-MP2 Energies <==================
	-----------------------------------------------------------
	 SCS Same-Spin Scale       =       0.3333333333333333 [-]
	 SCS Opposite-Spin Scale   =       1.2000000000000000 [-]
	 SCS Same-Spin Energy      =      -0.0114315392842346 [Eh]
	 SCS Opposite-Spin Energy  =      -0.1304350250780745 [Eh]
	 SCS Correlation Energy    =      -0.1418665643623091 [Eh]
	 SCS Total Energy          =     -75.9235544517505758 [Eh]
	-----------------------------------------------------------

  -Total Gradient:
     Atom            X                  Y                   Z
    ------   -----------------  -----------------  -----------------
       1       -0.000000000000     0.000000000000    -0.042410217061
       2        0.000000000000    -0.000000000000     0.133727116676
       3        0.000000000000    -0.000000000000    -0.091316899615

*** Psi4 exiting successfully. Buy a developer a beer!
