                               Psi4 1.2a1.dev429

  ==> Input File <==

--------------------------------------------------------------------------
# density-fitted hartree fock energies and gradients with 6-31g
molecule h2o {
0 1
O 0.0000000000 0.0000000000 0.0000000000
H 0.0000000000 0.0000000000 1.3000000000
H 0.0000000000 1.1276311449 -0.4104241720
}

set basis 6-31g

gradient('mp2')
--------------------------------------------------------------------------

    Molecular point group: cs
  Charge       = 0
  Multiplicity = 1
  Basis Set: 6-31G
    Blend: 6-31G
  Basis Set: (6-31G AUX)
    Blend: CC-PVDZ-JKFIT

    Orbital Energies (a.u.)
    -----------------------

    Doubly Occupied:

       1Ap   -20.608244     2Ap    -1.248122     3Ap    -0.584438
       4Ap    -0.506286     1App   -0.492221

  @DF-RHF Final Energy:   -75.88497950631427

   => Energetics <=

    Nuclear Repulsion Energy =              7.0426243286074177
    One-Electron Energy =                -118.9765868121859995
    Two-Electron Energy =                  36.0489829772643162
    Total Energy =                        -75.8849795063142665
  Basis Set: (6-31G AUX)
    Blend: CC-PVDZ-RI
    Molecular point group: cs

    Geometry (in Angstrom), charge = 0, multiplicity = 1:

       Center              X                  Y                   Z               Mass
    ------------   -----------------  -----------------  -----------------  -----------------
           O          0.063099348340     0.049778383028     0.000000000000    15.994914619560
           H          0.063099348340    -1.250221616972     0.000000000000     1.007825032070
           H         -1.064531796560     0.460202555028     0.000000000000     1.007825032070

  Basis Set: 6-31G
    Blend: 6-31G
  Basis Set: (6-31G AUX)
    Blend: CC-PVDZ-JKFIT
  Basis Set: (6-31G AUX)
    Blend: CC-PVDZ-JKFIT
	 Reference Energy          =     -75.8849795063142665 [Eh]
	 Singles Energy            =      -0.0000000000000000 [Eh]
	 Same-Spin Energy          =      -0.0355870302085154 [Eh]
	 Opposite-Spin Energy      =      -0.1202757656150643 [Eh]
	 Correlation Energy        =      -0.1558627958235797 [Eh]
	 Total Energy              =     -76.0408423021378468 [Eh]

	 ================> DF-SCS-MP2 Energies <==================
	-----------------------------------------------------------
	 SCS Same-Spin Scale       =       0.3333333333333333 [-]
	 SCS Opposite-Spin Scale   =       1.2000000000000000 [-]
	 SCS Same-Spin Energy      =      -0.0118623434028385 [Eh]
	 SCS Opposite-Spin Energy  =      -0.1443309187380771 [Eh]
	 SCS Correlation Energy    =      -0.1561932621409156 [Eh]
	 SCS Total Energy          =     -76.0411727684551835 [Eh]
	-----------------------------------------------------------

  -Total Gradient:
     Atom            X                  Y                   Z
    ------   -----------------  -----------------  -----------------
       1        0.069181315625     0.058428548175     0.000000000000
       2        0.014118072806    -0.105023203964    -0.000000000000
       3       -0.083299388431     0.046594655789     0.000000000000

*** Psi4 exiting successfully. Buy a developer a beer!
