                               Psi4 1.2a1.dev429

  ==> Input File <==

--------------------------------------------------------------------------
# density-fitted hartree fock energies and gradients with 6-31g
molecule h2o {
0 1
O 0.0000000000 0.0000000000 0.0000000000
H 0.0000000000 0.0000000000 1.0000000000
H 0.0000000000 0.0000000000 -1.1000000000
}

set basis 6-31g

gradient('mp2')
--------------------------------------------------------------------------

    Molecular point group: c2v
  Charge       = 0
  Multiplicity = 1
  Basis Set: 6-31G
    Blend: 6-31G
  Basis Set: (6-31G AUX)
    Blend: CC-PVDZ-JKFIT

    Orbital Energies (a.u.)
    -----------------------

    Doubly Occupied:

       1A1   -20.505830     2A1    -1.247262     3A1    -0.699253
       1B2    -0.448694     1B1    -0.448694

  @DF-RHF Final Energy:   -75.91313802246738

   => Energetics <=

    Nuclear Repulsion Energy =              8.3339683326857994
    One-Electron Energy =                -121.7947484256753512
    Two-Electron Energy =                  37.5476420705221656
    Total Energy =                        -75.9131380224673933
  Basis Set: (6-31G AUX)
    Blend: CC-PVDZ-RI
    Molecular point group: c2v

    Geometry (in Angstrom), charge = 0, multiplicity = 1:

       Center              X                  Y                   Z               Mass
    ------------   -----------------  -----------------  -----------------  -----------------
           O          0.000000000000     0.000000000000     0.005595743664    15.994914619560
           H          0.000000000000     0.000000000000     1.005595743664     1.007825032070
           H          0.000000000000     0.000000000000    -1.094404256336     1.007825032070

  Basis Set: 6-31G
    Blend: 6-31G
  Basis Set: (6-31G AUX)
    Blend: CC-PVDZ-JKFIT
  Basis Set: (6-31G AUX)
    Blend: CC-PVDZ-JKFIT
	 Reference Energy          =     -75.9131380224673791 [Eh]
	 Singles Energy            =      -0.0000000000000000 [Eh]
	 Same-Spin Energy          =      -0.0316953642884545 [Eh]
	 Opposite-Spin Energy      =      -0.0989087726678139 [Eh]
	 Correlation Energy        =      -0.1306041369562684 [Eh]
	 Total Energy              =     -76.0437421594236440 [Eh]

	 ================> DF-SCS-MP2 Energies <==================
	-----------------------------------------------------------
	 SCS Same-Spin Scale       =       0.3333333333333333 [-]
	 SCS Opposite-Spin Scale   =       1.2000000000000000 [-]
	 SCS Same-Spin Energy      =      -0.0105651214294848 [Eh]
	 SCS Opposite-Spin Energy  =      -0.1186905272013767 [Eh]
	 SCS Correlation Energy    =      -0.1292556486308615 [Eh]
	 SCS Total Energy          =     -76.0423936710982389 [Eh]
	-----------------------------------------------------------

  -Total Gradient:
     Atom            X                  Y                   Z
    ------   -----------------  -----------------  -----------------
       1       -0.000000000000     0.000000000000     0.061210639650
       2       -0.000000000000    -0.000000000000     0.053917737577
       3        0.000000000000     0.000000000000    -0.115128377227

*** Psi4 exiting successfully. Buy a developer a beer!
