                               Psi4 1.2a1.dev429

  ==> Input File <==

--------------------------------------------------------------------------
# density-fitted hartree fock energies and gradients with 6-31g
molecule h20 {
0 1
O 0.0000000000 0.0000000000 0.0000000000
H 0.0000000000 0.0000000000 1.2000000000
H 0.0000000000 0.5785088487 -0.6894399988
}

set basis 6-31g

gradient('hf')
--------------------------------------------------------------------------

    Molecular point group: cs
  Charge       = 0
  Multiplicity = 1
  Basis Set: 6-31G
    Blend: 6-31G
  Basis Set: (6-31G AUX)
    Blend: CC-PVDZ-JKFIT

    Orbital Energies (a.u.)
    -----------------------

    Doubly Occupied:

       1Ap   -20.536990     2Ap    -1.293884     3Ap    -0.695932
       4Ap    -0.481457     1App   -0.472702

  @DF-RHF Final Energy:   -75.91998229918293

   => Energetics <=

    Nuclear Repulsion Energy =              8.4994449547832218
    One-Electron Energy =                -121.8769255243616385
    Two-Electron Energy =                  37.4574982703954760
    Total Energy =                        -75.9199822991829336
    Molecular point group: cs

    Geometry (in Angstrom), charge = 0, multiplicity = 1:

       Center              X                  Y                   Z               Mass
    ------------   -----------------  -----------------  -----------------  -----------------
           O          0.032371872245     0.028569628916     0.000000000000    15.994914619560
           H          0.032371872245    -1.171430371084     0.000000000000     1.007825032070
           H         -0.546136976455     0.718009627716     0.000000000000     1.007825032070

  Basis Set: 6-31G
    Blend: 6-31G
  Basis Set: (6-31G AUX)
    Blend: CC-PVDZ-JKFIT

  -Total Gradient:
     Atom            X                  Y                   Z
    ------   -----------------  -----------------  -----------------
       1       -0.097447697077     0.164910058271     0.000000000000
       2        0.028709856345    -0.142544300764     0.000000000000
       3        0.068737840732    -0.022365757507     0.000000000000

*** Psi4 exiting successfully. Buy a developer a beer!
