                               Psi4 1.2a1.dev429

  ==> Input File <==

--------------------------------------------------------------------------
# density-fitted hartree fock energies and gradients with 6-31g
molecule h2o {
0 1
O 0.0000000000 0.0000000000 0.0000000000
H 0.0000000000 0.0000000000 1.4000000000
H 0.0000000000 1.1276311449 -0.4104241720
}

set basis 6-31g

gradient('mp2')
--------------------------------------------------------------------------

    Molecular point group: cs
  Charge       = 0
  Multiplicity = 1
  Basis Set: 6-31G
    Blend: 6-31G
  Basis Set: (6-31G AUX)
    Blend: CC-PVDZ-JKFIT

    Orbital Energies (a.u.)
    -----------------------

    Doubly Occupied:

       1Ap   -20.614891     2Ap    -1.241230     3Ap    -0.572736
       4Ap    -0.494821     1App   -0.493037

  @DF-RHF Final Energy:   -75.85999590201470

   => Energetics <=

    Nuclear Repulsion Energy =              6.7998220707877568
    One-Electron Energy =                -118.4862074050357137
    Two-Electron Energy =                  35.8263894322332561
    Total Energy =                        -75.8599959020147026
  Basis Set: (6-31G AUX)
    Blend: CC-PVDZ-RI
    Molecular point group: cs

    Geometry (in Angstrom), charge = 0, multiplicity = 1:

       Center              X                  Y                   Z               Mass
    ------------   -----------------  -----------------  -----------------  -----------------
           O          0.063099348340     0.055374126692     0.000000000000    15.994914619560
           H          0.063099348340    -1.344625873308     0.000000000000     1.007825032070
           H         -1.064531796560     0.465798298692     0.000000000000     1.007825032070

  Basis Set: 6-31G
    Blend: 6-31G
  Basis Set: (6-31G AUX)
    Blend: CC-PVDZ-JKFIT
  Basis Set: (6-31G AUX)
    Blend: CC-PVDZ-JKFIT
	 Reference Energy          =     -75.8599959020147026 [Eh]
	 Singles Energy            =      -0.0000000000000000 [Eh]
	 Same-Spin Energy          =      -0.0363758061358962 [Eh]
	 Opposite-Spin Energy      =      -0.1245893195390721 [Eh]
	 Correlation Energy        =      -0.1609651256749683 [Eh]
	 Total Energy              =     -76.0209610276896655 [Eh]

	 ================> DF-SCS-MP2 Energies <==================
	-----------------------------------------------------------
	 SCS Same-Spin Scale       =       0.3333333333333333 [-]
	 SCS Opposite-Spin Scale   =       1.2000000000000000 [-]
	 SCS Same-Spin Energy      =      -0.0121252687119654 [Eh]
	 SCS Opposite-Spin Energy  =      -0.1495071834468865 [Eh]
	 SCS Correlation Energy    =      -0.1616324521588519 [Eh]
	 SCS Total Energy          =     -76.0216283541735578 [Eh]
	-----------------------------------------------------------

  -Total Gradient:
     Atom            X                  Y                   Z
    ------   -----------------  -----------------  -----------------
       1        0.066334839464     0.057597171579    -0.000000000000
       2        0.014099987249    -0.104378764239     0.000000000000
       3       -0.080434826712     0.046781592661    -0.000000000000

*** Psi4 exiting successfully. Buy a developer a beer!
