                               Psi4 1.2a1.dev429

  ==> Input File <==

--------------------------------------------------------------------------
# density-fitted hartree fock energies and gradients with 6-31g
molecule h20 {
0 1
O 0.0000000000 0.0000000000 0.0000000000
H 0.0000000000 0.0000000000 1.3000000000
H 0.0000000000 0.8356238926 -0.9958577761
}

set basis 6-31g

gradient('hf')
--------------------------------------------------------------------------

    Molecular point group: c2v
  Charge       = 0
  Multiplicity = 1
  Basis Set: 6-31G
    Blend: 6-31G
  Basis Set: (6-31G AUX)
    Blend: CC-PVDZ-JKFIT

    Orbital Energies (a.u.)
    -----------------------

    Doubly Occupied:

       1A1   -20.575477     2A1    -1.207024     1B2    -0.573344
       1B1    -0.464111     3A1    -0.454433

  @DF-RHF Final Energy:   -75.83122160159220

   => Energetics <=

    Nuclear Repulsion Energy =              6.7295420375747579
    One-Electron Energy =                -118.5727497312919638
    Two-Electron Energy =                  36.0119860921250066
    Total Energy =                        -75.8312216015922047
    Molecular point group: c2v

    Geometry (in Angstrom), charge = 0, multiplicity = 1:

       Center              X                  Y                   Z               Mass
    ------------   -----------------  -----------------  -----------------  -----------------
           O          0.000000000000     0.000000000000    -0.049760283295    15.994914619560
           H          0.000000000000    -1.221600407044     0.394865903024     1.007825032070
           H         -0.000000000000     1.221600407044     0.394865903024     1.007825032070

  Basis Set: 6-31G
    Blend: 6-31G
  Basis Set: (6-31G AUX)
    Blend: CC-PVDZ-JKFIT

  -Total Gradient:
     Atom            X                  Y                   Z
    ------   -----------------  -----------------  -----------------
       1        0.000000000000     0.000000000000    -0.030591625864
       2        0.000000000000    -0.135795137624     0.015295812932
       3       -0.000000000000     0.135795137624     0.015295812932

*** Psi4 exiting successfully. Buy a developer a beer!
