                               Psi4 1.2a1.dev429

  ==> Input File <==

--------------------------------------------------------------------------
# density-fitted hartree fock energies and gradients with 6-31g
molecule h2o {
0 1
O 0.0000000000 0.0000000000 0.0000000000
H 0.0000000000 0.0000000000 1.2000000000
H 0.0000000000 0.9526279442 -0.5500000000
}

set basis 6-31g

gradient('mp2')
--------------------------------------------------------------------------

    Molecular point group: cs
  Charge       = 0
  Multiplicity = 1
  Basis Set: 6-31G
    Blend: 6-31G
  Basis Set: (6-31G AUX)
    Blend: CC-PVDZ-JKFIT

    Orbital Energies (a.u.)
    -----------------------

    Doubly Occupied:

       1Ap   -20.580694     2Ap    -1.264170     3Ap    -0.631336
       4Ap    -0.503784     1App   -0.484679

  @DF-RHF Final Energy:   -75.92492314251658

   => Energetics <=

    Nuclear Repulsion Energy =              7.6419960020097539
    One-Electron Energy =                -120.2045144700835380
    Two-Electron Energy =                  36.6375953255572071
    Total Energy =                        -75.9249231425165760
  Basis Set: (6-31G AUX)
    Blend: CC-PVDZ-RI
    Molecular point group: cs

    Geometry (in Angstrom), charge = 0, multiplicity = 1:

       Center              X                  Y                   Z               Mass
    ------------   -----------------  -----------------  -----------------  -----------------
           O          0.053306617825     0.036372333814     0.000000000000    15.994914619560
           H          0.053306617825    -1.163627666186     0.000000000000     1.007825032070
           H         -0.899321326375     0.586372333814     0.000000000000     1.007825032070

  Basis Set: 6-31G
    Blend: 6-31G
  Basis Set: (6-31G AUX)
    Blend: CC-PVDZ-JKFIT
  Basis Set: (6-31G AUX)
    Blend: CC-PVDZ-JKFIT
	 Reference Energy          =     -75.9249231425165760 [Eh]
	 Singles Energy            =      -0.0000000000000000 [Eh]
	 Same-Spin Energy          =      -0.0336778935871002 [Eh]
	 Opposite-Spin Energy      =      -0.1111609782104613 [Eh]
	 Correlation Energy        =      -0.1448388717975615 [Eh]
	 Total Energy              =     -76.0697620143141364 [Eh]

	 ================> DF-SCS-MP2 Energies <==================
	-----------------------------------------------------------
	 SCS Same-Spin Scale       =       0.3333333333333333 [-]
	 SCS Opposite-Spin Scale   =       1.2000000000000000 [-]
	 SCS Same-Spin Energy      =      -0.0112259645290334 [Eh]
	 SCS Opposite-Spin Energy  =      -0.1333931738525536 [Eh]
	 SCS Correlation Energy    =      -0.1446191383815870 [Eh]
	 SCS Total Energy          =     -76.0695422808981618 [Eh]
	-----------------------------------------------------------

  -Total Gradient:
     Atom            X                  Y                   Z
    ------   -----------------  -----------------  -----------------
       1        0.032443348909     0.044949264989     0.000000000000
       2        0.021999137407    -0.104093376648    -0.000000000000
       3       -0.054442486316     0.059144111658    -0.000000000000

*** Psi4 exiting successfully. Buy a developer a beer!
