                               Psi4 1.2a1.dev429

  ==> Input File <==

--------------------------------------------------------------------------
# density-fitted hartree fock energies and gradients with 6-31g
molecule h2o {
0 1
O 0.0000000000 0.0000000000 0.0000000000
H 0.0000000000 0.0000000000 0.9000000000
H 0.0000000000 1.1276311449 -0.4104241720
}

set basis 6-31g

gradient('mp2')
--------------------------------------------------------------------------

    Molecular point group: cs
  Charge       = 0
  Multiplicity = 1
  Basis Set: 6-31G
    Blend: 6-31G
  Basis Set: (6-31G AUX)
    Blend: CC-PVDZ-JKFIT

    Orbital Energies (a.u.)
    -----------------------

    Doubly Occupied:

       1Ap   -20.570956     2Ap    -1.326197     3Ap    -0.676129
       4Ap    -0.530386     1App   -0.495654

  @DF-RHF Final Energy:   -75.94293231232729

   => Energetics <=

    Nuclear Repulsion Energy =              8.5377398464302168
    One-Electron Energy =                -121.7626992600834797
    Two-Electron Energy =                  37.2820271013259870
    Total Energy =                        -75.9429323123272866
  Basis Set: (6-31G AUX)
    Blend: CC-PVDZ-RI
    Molecular point group: cs

    Geometry (in Angstrom), charge = 0, multiplicity = 1:

       Center              X                  Y                   Z               Mass
    ------------   -----------------  -----------------  -----------------  -----------------
           O          0.063099348340     0.027395408374     0.000000000000    15.994914619560
           H          0.063099348340    -0.872604591626     0.000000000000     1.007825032070
           H         -1.064531796560     0.437819580374     0.000000000000     1.007825032070

  Basis Set: 6-31G
    Blend: 6-31G
  Basis Set: (6-31G AUX)
    Blend: CC-PVDZ-JKFIT
  Basis Set: (6-31G AUX)
    Blend: CC-PVDZ-JKFIT
	 Reference Energy          =     -75.9429323123272866 [Eh]
	 Singles Energy            =      -0.0000000000000000 [Eh]
	 Same-Spin Energy          =      -0.0315839186510774 [Eh]
	 Opposite-Spin Energy      =      -0.1044971318904421 [Eh]
	 Correlation Energy        =      -0.1360810505415195 [Eh]
	 Total Energy              =     -76.0790133628688068 [Eh]

	 ================> DF-SCS-MP2 Energies <==================
	-----------------------------------------------------------
	 SCS Same-Spin Scale       =       0.3333333333333333 [-]
	 SCS Opposite-Spin Scale   =       1.2000000000000000 [-]
	 SCS Same-Spin Energy      =      -0.0105279728836925 [Eh]
	 SCS Opposite-Spin Energy  =      -0.1253965582685305 [Eh]
	 SCS Correlation Energy    =      -0.1359245311522230 [Eh]
	 SCS Total Energy          =     -76.0788568434795138 [Eh]
	-----------------------------------------------------------

  -Total Gradient:
     Atom            X                  Y                   Z
    ------   -----------------  -----------------  -----------------
       1        0.088066313015    -0.140789766555     0.000000000000
       2        0.008776378676     0.098537190230    -0.000000000000
       3       -0.096842691691     0.042252576325     0.000000000000

*** Psi4 exiting successfully. Buy a developer a beer!
