                               Psi4 1.2a1.dev429

  ==> Input File <==

--------------------------------------------------------------------------
# density-fitted hartree fock energies and gradients with 6-31g
molecule h2o {
0 1
O 0.0000000000 0.0000000000 0.0000000000
H 0.0000000000 0.0000000000 1.1000000000
H 0.0000000000 0.2083778132 -1.1817693036
}

set basis 6-31g

gradient('mp2')
--------------------------------------------------------------------------

    Molecular point group: cs
  Charge       = 0
  Multiplicity = 1
  Basis Set: 6-31G
    Blend: 6-31G
  Basis Set: (6-31G AUX)
    Blend: CC-PVDZ-JKFIT

    Orbital Energies (a.u.)
    -----------------------

    Doubly Occupied:

       1Ap   -20.510714     2Ap    -1.208687     3Ap    -0.637093
       1App   -0.436039     4Ap    -0.435596

  @DF-RHF Final Energy:   -75.87118994512831

   => Energetics <=

    Nuclear Repulsion Energy =              7.6073638076163190
    One-Electron Energy =                -120.5008505674967694
    Two-Electron Energy =                  37.0222968147521385
    Total Energy =                        -75.8711899451283074
  Basis Set: (6-31G AUX)
    Blend: CC-PVDZ-RI
    Molecular point group: cs

    Geometry (in Angstrom), charge = 0, multiplicity = 1:

       Center              X                  Y                   Z               Mass
    ------------   -----------------  -----------------  -----------------  -----------------
           O          0.011660288279    -0.004575600625     0.000000000000    15.994914619560
           H          0.011660288279    -1.104575600625     0.000000000000     1.007825032070
           H         -0.196717524921     1.177193702975     0.000000000000     1.007825032070

  Basis Set: 6-31G
    Blend: 6-31G
  Basis Set: (6-31G AUX)
    Blend: CC-PVDZ-JKFIT
  Basis Set: (6-31G AUX)
    Blend: CC-PVDZ-JKFIT
	 Reference Energy          =     -75.8711899451283074 [Eh]
	 Singles Energy            =      -0.0000000000000000 [Eh]
	 Same-Spin Energy          =      -0.0330558583316398 [Eh]
	 Opposite-Spin Energy      =      -0.1035433462514944 [Eh]
	 Correlation Energy        =      -0.1365992045831342 [Eh]
	 Total Energy              =     -76.0077891497114422 [Eh]

	 ================> DF-SCS-MP2 Energies <==================
	-----------------------------------------------------------
	 SCS Same-Spin Scale       =       0.3333333333333333 [-]
	 SCS Opposite-Spin Scale   =       1.2000000000000000 [-]
	 SCS Same-Spin Energy      =      -0.0110186194438799 [Eh]
	 SCS Opposite-Spin Energy  =      -0.1242520155017933 [Eh]
	 SCS Correlation Energy    =      -0.1352706349456732 [Eh]
	 SCS Total Energy          =     -76.0064605800739770 [Eh]
	-----------------------------------------------------------

  -Total Gradient:
     Atom            X                  Y                   Z
    ------   -----------------  -----------------  -----------------
       1       -0.016151456728    -0.030121637893     0.000000000000
       2        0.020533908430    -0.103128374440    -0.000000000000
       3       -0.004382451702     0.133250012334    -0.000000000000

*** Psi4 exiting successfully. Buy a developer a beer!
