                               Psi4 1.2a1.dev429

  ==> Input File <==

--------------------------------------------------------------------------
# density-fitted hartree fock energies and gradients with 6-31g
molecule h20 {
0 1
O 0.0000000000 0.0000000000 0.0000000000
O 0.0000000000 0.0000000000 1.3161616162
}

set basis 6-31g

gradient('hf')
--------------------------------------------------------------------------

    Molecular point group: d2h
  Charge       = 0
  Multiplicity = 1
  Basis Set: 6-31G
    Blend: 6-31G
  Basis Set: (6-31G AUX)
    Blend: CC-PVDZ-JKFIT

    Orbital Energies (a.u.)
    -----------------------

    Doubly Occupied:

       1Ag   -20.775196     1B1u  -20.774617     2Ag    -1.599956
       2B1u   -1.142982     1B2u   -0.748554     3Ag    -0.696324
       1B3u   -0.612278     1B3g   -0.522578

  @DF-RHF Final Energy:  -149.44248663131208

   => Energetics <=

    Nuclear Repulsion Energy =             25.7319017154908458
    One-Electron Energy =                -256.6038081981428718
    Two-Electron Energy =                  81.4294198513399436
    Total Energy =                       -149.4424866313120788
    Molecular point group: d2h

    Geometry (in Angstrom), charge = 0, multiplicity = 1:

       Center              X                  Y                   Z               Mass
    ------------   -----------------  -----------------  -----------------  -----------------
           O          0.000000000000     0.000000000000    -0.658080808100    15.994914619560
           O          0.000000000000     0.000000000000     0.658080808100    15.994914619560

  Basis Set: 6-31G
    Blend: 6-31G
  Basis Set: (6-31G AUX)
    Blend: CC-PVDZ-JKFIT

  -Total Gradient:
     Atom            X                  Y                   Z
    ------   -----------------  -----------------  -----------------
       1       -0.000000000000     0.000000000000    -0.142905891363
       2        0.000000000000    -0.000000000000     0.142905891363

*** Psi4 exiting successfully. Buy a developer a beer!
