                               Psi4 1.2a1.dev429

  ==> Input File <==

--------------------------------------------------------------------------
# density-fitted hartree fock energies and gradients with 6-31g
molecule h20 {
0 1
O 0.0000000000 0.0000000000 0.0000000000
H 0.0000000000 0.0000000000 1.3000000000
H 0.0000000000 1.1817693036 -0.2083778132
}

set basis 6-31g

gradient('hf')
--------------------------------------------------------------------------

    Molecular point group: cs
  Charge       = 0
  Multiplicity = 1
  Basis Set: 6-31G
    Blend: 6-31G
  Basis Set: (6-31G AUX)
    Blend: CC-PVDZ-JKFIT

    Orbital Energies (a.u.)
    -----------------------

    Doubly Occupied:

       1Ap   -20.617609     2Ap    -1.256168     3Ap    -0.577384
       4Ap    -0.521413     1App   -0.498919

  @DF-RHF Final Energy:   -75.88714907761542

   => Energetics <=

    Nuclear Repulsion Energy =              7.0604843915823166
    One-Electron Energy =                -118.9522791516577485
    Two-Electron Energy =                  36.0046456824599943
    Total Energy =                        -75.8871490776154332
    Molecular point group: cs

    Geometry (in Angstrom), charge = 0, multiplicity = 1:

       Center              X                  Y                   Z               Mass
    ------------   -----------------  -----------------  -----------------  -----------------
           O          0.066128780925     0.061084379349     0.000000000000    15.994914619560
           H          0.066128780925    -1.238915620651     0.000000000000     1.007825032070
           H         -1.115640522675     0.269462192549     0.000000000000     1.007825032070

  Basis Set: 6-31G
    Blend: 6-31G
  Basis Set: (6-31G AUX)
    Blend: CC-PVDZ-JKFIT

  -Total Gradient:
     Atom            X                  Y                   Z
    ------   -----------------  -----------------  -----------------
       1        0.117494376061     0.108302496761     0.000000000000
       2       -0.000407966079    -0.128499204050     0.000000000000
       3       -0.117086409982     0.020196707288     0.000000000000

*** Psi4 exiting successfully. Buy a developer a beer!
