                               Psi4 1.2a1.dev429

  ==> Input File <==

--------------------------------------------------------------------------
# density-fitted hartree fock energies and gradients with 6-31g
molecule h20 {
0 1
O 0.0000000000 0.0000000000 0.0000000000
H 0.0000000000 0.0000000000 0.7000000000
H 0.0000000000 0.5142300877 -0.6128355545
}

set basis 6-31g

gradient('hf')
--------------------------------------------------------------------------

    Molecular point group: cs
  Charge       = 0
  Multiplicity = 1
  Basis Set: 6-31G
    Blend: 6-31G
  Basis Set: (6-31G AUX)
    Blend: CC-PVDZ-JKFIT

    Orbital Energies (a.u.)
    -----------------------

    Doubly Occupied:

       1Ap   -20.504404     2Ap    -1.452633     3Ap    -0.918634
       4Ap    -0.533439     1App   -0.511906

  @DF-RHF Final Energy:   -75.82303875465472

   => Energetics <=

    Nuclear Repulsion Energy =             11.7148268897215342
    One-Electron Energy =                -127.2336988975535093
    Two-Electron Energy =                  39.6958332531772555
    Total Energy =                        -75.8230387546547178
    Molecular point group: cs

    Geometry (in Angstrom), charge = 0, multiplicity = 1:

       Center              X                  Y                   Z               Mass
    ------------   -----------------  -----------------  -----------------  -----------------
           O          0.028774997549     0.004877498936     0.000000000000    15.994914619560
           H          0.028774997549    -0.695122501064     0.000000000000     1.007825032070
           H         -0.485455090151     0.617713053436     0.000000000000     1.007825032070

  Basis Set: 6-31G
    Blend: 6-31G
  Basis Set: (6-31G AUX)
    Blend: CC-PVDZ-JKFIT

  -Total Gradient:
     Atom            X                  Y                   Z
    ------   -----------------  -----------------  -----------------
       1       -0.206880202094    -0.522826583434     0.000000000000
       2        0.022091644781     0.712976574539     0.000000000000
       3        0.184788557313    -0.190149991104     0.000000000000

*** Psi4 exiting successfully. Buy a developer a beer!
