                               Psi4 1.2a1.dev429

  ==> Input File <==

--------------------------------------------------------------------------
# density-fitted hartree fock energies and gradients with 6-31g
molecule h20 {
0 1
O 0.0000000000 0.0000000000 0.0000000000
H 0.0000000000 0.0000000000 0.8000000000
H 0.0000000000 0.2394141003 -0.6577848346
}

set basis 6-31g

gradient('hf')
--------------------------------------------------------------------------

    Molecular point group: cs
  Charge       = 0
  Multiplicity = 1
  Basis Set: 6-31G
    Blend: 6-31G
  Basis Set: (6-31G AUX)
    Blend: CC-PVDZ-JKFIT

    Orbital Energies (a.u.)
    -----------------------

    Doubly Occupied:

       1Ap   -20.496486     2Ap    -1.433900     3Ap    -0.939596
       4Ap    -0.513825     1App   -0.508440

  @DF-RHF Final Energy:   -75.81217472251353

   => Energetics <=

    Nuclear Repulsion Energy =             11.6977139444089353
    One-Electron Energy =                -127.2352820570437615
    Two-Electron Energy =                  39.7253933901213117
    Total Energy =                        -75.8121747225135181
    Molecular point group: cs

    Geometry (in Angstrom), charge = 0, multiplicity = 1:

       Center              X                  Y                   Z               Mass
    ------------   -----------------  -----------------  -----------------  -----------------
           O          0.013396999347     0.007957996107     0.000000000000    15.994914619560
           H          0.013396999347    -0.792042003893     0.000000000000     1.007825032070
           H         -0.226017100953     0.665742830707     0.000000000000     1.007825032070

  Basis Set: 6-31G
    Blend: 6-31G
  Basis Set: (6-31G AUX)
    Blend: CC-PVDZ-JKFIT

  -Total Gradient:
     Atom            X                  Y                   Z
    ------   -----------------  -----------------  -----------------
       1       -0.277973027533     0.399828863511     0.000000000000
       2        0.018023645616     0.254150349386     0.000000000000
       3        0.259949381916    -0.653979212897     0.000000000000

*** Psi4 exiting successfully. Buy a developer a beer!
