                               Psi4 1.2a1.dev429

  ==> Input File <==

--------------------------------------------------------------------------
# density-fitted hartree fock energies and gradients with 6-31g
molecule h20 {
0 1
O 0.0000000000 0.0000000000 0.0000000000
H 0.0000000000 0.0000000000 0.7000000000
H 0.0000000000 0.9000000000 0.0000000000
}

set basis 6-31g

gradient('hf')
--------------------------------------------------------------------------

    Molecular point group: cs
  Charge       = 0
  Multiplicity = 1
  Basis Set: 6-31G
    Blend: 6-31G
  Basis Set: (6-31G AUX)
    Blend: CC-PVDZ-JKFIT

    Orbital Energies (a.u.)
    -----------------------

    Doubly Occupied:

       1Ap   -20.538593     2Ap    -1.499029     3Ap    -0.767839
       4Ap    -0.610599     1App   -0.519640

  @DF-RHF Final Energy:   -75.83267209275462

   => Energetics <=

    Nuclear Repulsion Energy =             11.2156560508601135
    One-Electron Energy =                -126.2252556433032424
    Two-Electron Energy =                  39.1769274996884889
    Total Energy =                        -75.8326720927546347
    Molecular point group: cs

    Geometry (in Angstrom), charge = 0, multiplicity = 1:

       Center              X                  Y                   Z               Mass
    ------------   -----------------  -----------------  -----------------  -----------------
           O          0.050361692973     0.039170205645     0.000000000000    15.994914619560
           H          0.050361692973    -0.660829794355     0.000000000000     1.007825032070
           H         -0.849638307027     0.039170205645     0.000000000000     1.007825032070

  Basis Set: 6-31G
    Blend: 6-31G
  Basis Set: (6-31G AUX)
    Blend: CC-PVDZ-JKFIT

  -Total Gradient:
     Atom            X                  Y                   Z
    ------   -----------------  -----------------  -----------------
       1       -0.004619635942    -0.684627928065     0.000000000000
       2       -0.079963967852     0.746822123553     0.000000000000
       3        0.084583603794    -0.062194195488     0.000000000000

*** Psi4 exiting successfully. Buy a developer a beer!
