                               Psi4 1.2a1.dev429

  ==> Input File <==

--------------------------------------------------------------------------
# density-fitted hartree fock energies and gradients with 6-31g
molecule h2o {
0 1
O 0.0000000000 0.0000000000 0.0000000000
H 0.0000000000 0.0000000000 1.0000000000
H 0.0000000000 0.7070663707 -0.8426488874
}

set basis 6-31g

gradient('mp2')
--------------------------------------------------------------------------

    Molecular point group: cs
  Charge       = 0
  Multiplicity = 1
  Basis Set: 6-31G
    Blend: 6-31G
  Basis Set: (6-31G AUX)
    Blend: CC-PVDZ-JKFIT

    Orbital Energies (a.u.)
    -----------------------

    Doubly Occupied:

       1Ap   -20.540463     2Ap    -1.277678     3Ap    -0.694458
       4Ap    -0.483598     1App   -0.472229

  @DF-RHF Final Energy:   -75.94390877917814

   => Energetics <=

    Nuclear Repulsion Energy =              8.3501001666900727
    One-Electron Energy =                -121.6511649505781207
    Two-Electron Energy =                  37.3571560047099140
    Total Energy =                        -75.9439087791781446
  Basis Set: (6-31G AUX)
    Blend: CC-PVDZ-RI
    Molecular point group: cs

    Geometry (in Angstrom), charge = 0, multiplicity = 1:

       Center              X                  Y                   Z               Mass
    ------------   -----------------  -----------------  -----------------  -----------------
           O          0.039565621636     0.008804964913     0.000000000000    15.994914619560
           H          0.039565621636    -0.991195035087     0.000000000000     1.007825032070
           H         -0.667500749064     0.851453852313     0.000000000000     1.007825032070

  Basis Set: 6-31G
    Blend: 6-31G
  Basis Set: (6-31G AUX)
    Blend: CC-PVDZ-JKFIT
  Basis Set: (6-31G AUX)
    Blend: CC-PVDZ-JKFIT
	 Reference Energy          =     -75.9439087791781446 [Eh]
	 Singles Energy            =      -0.0000000000000000 [Eh]
	 Same-Spin Energy          =      -0.0320231506305126 [Eh]
	 Opposite-Spin Energy      =      -0.1023254950179330 [Eh]
	 Correlation Energy        =      -0.1343486456484456 [Eh]
	 Total Energy              =     -76.0782574248265888 [Eh]

	 ================> DF-SCS-MP2 Energies <==================
	-----------------------------------------------------------
	 SCS Same-Spin Scale       =       0.3333333333333333 [-]
	 SCS Opposite-Spin Scale   =       1.2000000000000000 [-]
	 SCS Same-Spin Energy      =      -0.0106743835435042 [Eh]
	 SCS Opposite-Spin Energy  =      -0.1227905940215197 [Eh]
	 SCS Correlation Energy    =      -0.1334649775650238 [Eh]
	 SCS Total Energy          =     -76.0773737567431709 [Eh]
	-----------------------------------------------------------

  -Total Gradient:
     Atom            X                  Y                   Z
    ------   -----------------  -----------------  -----------------
       1       -0.000947384794    -0.058541150896    -0.000000000000
       2        0.036683723144    -0.035929341698     0.000000000000
       3       -0.035736338350     0.094470492594     0.000000000000

*** Psi4 exiting successfully. Buy a developer a beer!
