                               Psi4 1.3.1 release

  ==> Input File <==

--------------------------------------------------------------------------
# density fitted hartree fock
molecule h2o {
0 1
H 0.0000000000 0.0000000000 1.2000000000
H 0.0000000000 1.1029824083 -0.1452103888
O 0.0000000000 0.0000000000 0.0000000000
}

set basis 6-31g
energy('hf')

--------------------------------------------------------------------------

    Molecular point group: cs

    Geometry (in Angstrom), charge = 0, multiplicity = 1:

       Center              X                  Y                   Z               Mass
    ------------   -----------------  -----------------  -----------------  -----------------
         H            0.061720068232    -1.140976677158     0.000000000000     1.007825032230
         H           -1.041262340068     0.204233711642     0.000000000000     1.007825032230
         O            0.061720068232     0.059023322842     0.000000000000    15.994914619570

  Charge       = 0
  Multiplicity = 1
  Basis Set: 6-31G
    Blend: 6-31G
  Basis Set: (6-31G AUX)
    Blend: CC-PVDZ-JKFIT

    Orbital Energies [Eh]
    ---------------------

    Doubly Occupied:

       1Ap   -20.604045     2Ap    -1.282417     3Ap    -0.607928
       4Ap    -0.541602     1App   -0.500121

  @DF-RHF Final Energy:   -75.92836274809379

   => Energetics <=

    Nuclear Repulsion Energy =              7.6373644634545954
    One-Electron Energy =                -120.0592156906195527
    Two-Electron Energy =                  36.4934884790711465
    Total Energy =                        -75.9283627480938037

  Dipole Moment: [D]
     X:    -2.0837      Y:    -1.8057      Z:     0.0000     Total:     2.7573

*** Psi4 exiting successfully. Buy a developer a beer!
