                               Psi4 1.3.1 release

  ==> Input File <==

--------------------------------------------------------------------------
# density fitted hartree fock
molecule h2o {
0 1
H 0.0000000000 0.0000000000 1.1500000000
H 0.0000000000 0.9009688679 -0.4338837391
O 0.0000000000 0.0000000000 0.0000000000
}

set basis 6-31g
energy('hf')

--------------------------------------------------------------------------

    Molecular point group: cs

    Geometry (in Angstrom), charge = 0, multiplicity = 1:

       Center              X                  Y                   Z               Mass
    ------------   -----------------  -----------------  -----------------  -----------------
         H            0.050415908344    -1.109927969701     0.000000000000     1.007825032230
         H           -0.850552959556     0.473955769399     0.000000000000     1.007825032230
         O            0.050415908344     0.040072030299     0.000000000000    15.994914619570

  Charge       = 0
  Multiplicity = 1
  Basis Set: 6-31G
    Blend: 6-31G
  Basis Set: (6-31G AUX)
    Blend: CC-PVDZ-JKFIT

    Orbital Energies [Eh]
    ---------------------

    Doubly Occupied:

       1Ap   -20.572004     2Ap    -1.296065     3Ap    -0.664433
       4Ap    -0.520975     1App   -0.489901

  @DF-RHF Final Energy:   -75.95389941192448

   => Energetics <=

    Nuclear Repulsion Energy =              8.2050552605149445
    One-Electron Energy =                -121.2311400332468594
    Two-Electron Energy =                  37.0721853608074383
    Total Energy =                        -75.9538994119244819

  Dipole Moment: [D]
     X:    -2.0275      Y:    -1.3758      Z:     0.0000     Total:     2.4502

*** Psi4 exiting successfully. Buy a developer a beer!
