                               Psi4 1.3.1 release

  ==> Input File <==

--------------------------------------------------------------------------
# density fitted hartree fock
molecule h2o {
0 1
H 0.0000000000 0.0000000000 1.2000000000
H 0.0000000000 1.0392304845 -0.6000000000
O 0.0000000000 0.0000000000 0.0000000000
}

set basis 6-31g
energy('hf')

--------------------------------------------------------------------------

    Molecular point group: c2v

    Geometry (in Angstrom), charge = 0, multiplicity = 1:

       Center              X                  Y                   Z               Mass
    ------------   -----------------  -----------------  -----------------  -----------------
         H            0.000000000000    -1.039230484531     0.532851076011     1.007825032230
         H           -0.000000000000     1.039230484531     0.532851076011     1.007825032230
         O           -0.000000000000     0.000000000000    -0.067148923971    15.994914619570

  Charge       = 0
  Multiplicity = 1
  Basis Set: 6-31G
    Blend: 6-31G
  Basis Set: (6-31G AUX)
    Blend: CC-PVDZ-JKFIT

    Orbital Energies [Eh]
    ---------------------

    Doubly Occupied:

       1A1   -20.589363     2A1    -1.249243     1B2    -0.608566
       3A1    -0.497923     1B1    -0.484129

  @DF-RHF Final Energy:   -75.90314647752308

   => Energetics <=

    Nuclear Repulsion Energy =              7.3102966465655328
    One-Electron Energy =                -119.5684383295204896
    Two-Electron Energy =                  36.3549952054318695
    Total Energy =                        -75.9031464775230802

  Dipole Moment: [D]
     X:    -0.0000      Y:     0.0000      Z:     2.3406     Total:     2.3406

*** Psi4 exiting successfully. Buy a developer a beer!
