                               Psi4 1.2a1.dev429

  ==> Input File <==

--------------------------------------------------------------------------
# density-fitted hartree fock energies and gradients with 6-31g
molecule h2o {
0 1
O 0.0000000000 0.0000000000 0.0000000000
H 0.0000000000 0.0000000000 1.4000000000
H 0.0000000000 0.5130302150 -1.4095389312
}

set basis 6-31g

gradient('mp2')
--------------------------------------------------------------------------

    Molecular point group: cs
  Charge       = 0
  Multiplicity = 1
  Basis Set: 6-31G
    Blend: 6-31G
  Basis Set: (6-31G AUX)
    Blend: CC-PVDZ-JKFIT

    Orbital Energies (a.u.)
    -----------------------

    Doubly Occupied:

       1Ap   -20.552085     2Ap    -1.159703     3Ap    -0.511121
       1App   -0.437047     4Ap    -0.417470

  @DF-RHF Final Energy:   -75.72867899090427

   => Energetics <=

    Nuclear Repulsion Energy =              6.0314346531800629
    One-Electron Energy =                -117.3653743702667214
    Two-Electron Energy =                  35.6052607261823937
    Total Energy =                        -75.7286789909042710
  Basis Set: (6-31G AUX)
    Blend: CC-PVDZ-RI
    Molecular point group: cs

    Geometry (in Angstrom), charge = 0, multiplicity = 1:

       Center              X                  Y                   Z               Mass
    ------------   -----------------  -----------------  -----------------  -----------------
           O          0.028707855748    -0.000533774138     0.000000000000    15.994914619560
           H          0.028707855748    -1.400533774138     0.000000000000     1.007825032070
           H         -0.484322359252     1.409005157062     0.000000000000     1.007825032070

  Basis Set: 6-31G
    Blend: 6-31G
  Basis Set: (6-31G AUX)
    Blend: CC-PVDZ-JKFIT
  Basis Set: (6-31G AUX)
    Blend: CC-PVDZ-JKFIT
	 Reference Energy          =     -75.7286789909042710 [Eh]
	 Singles Energy            =      -0.0000000000000000 [Eh]
	 Same-Spin Energy          =      -0.0367246613371518 [Eh]
	 Opposite-Spin Energy      =      -0.1251205377501168 [Eh]
	 Correlation Energy        =      -0.1618451990872685 [Eh]
	 Total Energy              =     -75.8905241899915382 [Eh]

	 ================> DF-SCS-MP2 Energies <==================
	-----------------------------------------------------------
	 SCS Same-Spin Scale       =       0.3333333333333333 [-]
	 SCS Opposite-Spin Scale   =       1.2000000000000000 [-]
	 SCS Same-Spin Energy      =      -0.0122415537790506 [Eh]
	 SCS Opposite-Spin Energy  =      -0.1501446453001401 [Eh]
	 SCS Correlation Energy    =      -0.1623861990791907 [Eh]
	 SCS Total Energy          =     -75.8910651899834647 [Eh]
	-----------------------------------------------------------

  -Total Gradient:
     Atom            X                  Y                   Z
    ------   -----------------  -----------------  -----------------
       1       -0.053714694485    -0.002202181888    -0.000000000000
       2        0.046138468450    -0.102888841620     0.000000000000
       3        0.007576226035     0.105091023507     0.000000000000

*** Psi4 exiting successfully. Buy a developer a beer!
