                               Psi4 1.2a1.dev429

  ==> Input File <==

--------------------------------------------------------------------------
# density-fitted hartree fock energies and gradients with 6-31g
molecule h2o {
0 1
O 0.0000000000 0.0000000000 0.0000000000
H 0.0000000000 0.0000000000 1.4000000000
H 0.0000000000 0.7070663707 -0.8426488874
}

set basis 6-31g

gradient('mp2')
--------------------------------------------------------------------------

    Molecular point group: cs
  Charge       = 0
  Multiplicity = 1
  Basis Set: 6-31G
    Blend: 6-31G
  Basis Set: (6-31G AUX)
    Blend: CC-PVDZ-JKFIT

    Orbital Energies (a.u.)
    -----------------------

    Doubly Occupied:

       1Ap   -20.565046     2Ap    -1.226221     3Ap    -0.600372
       1App   -0.464420     4Ap    -0.455113

  @DF-RHF Final Energy:   -75.85146275569653

   => Energetics <=

    Nuclear Repulsion Energy =              7.0974721844436797
    One-Electron Energy =                -119.2755250540689786
    Two-Electron Energy =                  36.3265901139287735
    Total Energy =                        -75.8514627556965308
  Basis Set: (6-31G AUX)
    Blend: CC-PVDZ-RI
    Molecular point group: cs

    Geometry (in Angstrom), charge = 0, multiplicity = 1:

       Center              X                  Y                   Z               Mass
    ------------   -----------------  -----------------  -----------------  -----------------
           O          0.039565621636     0.031187939567     0.000000000000    15.994914619560
           H          0.039565621636    -1.368812060433     0.000000000000     1.007825032070
           H         -0.667500749064     0.873836826967     0.000000000000     1.007825032070

  Basis Set: 6-31G
    Blend: 6-31G
  Basis Set: (6-31G AUX)
    Blend: CC-PVDZ-JKFIT
  Basis Set: (6-31G AUX)
    Blend: CC-PVDZ-JKFIT
	 Reference Energy          =     -75.8514627556965308 [Eh]
	 Singles Energy            =      -0.0000000000000000 [Eh]
	 Same-Spin Energy          =      -0.0348869302820385 [Eh]
	 Opposite-Spin Energy      =      -0.1164325892077313 [Eh]
	 Correlation Energy        =      -0.1513195194897698 [Eh]
	 Total Energy              =     -76.0027822751863056 [Eh]

	 ================> DF-SCS-MP2 Energies <==================
	-----------------------------------------------------------
	 SCS Same-Spin Scale       =       0.3333333333333333 [-]
	 SCS Opposite-Spin Scale   =       1.2000000000000000 [-]
	 SCS Same-Spin Energy      =      -0.0116289767606795 [Eh]
	 SCS Opposite-Spin Energy  =      -0.1397191070492776 [Eh]
	 SCS Correlation Energy    =      -0.1513480838099571 [Eh]
	 SCS Total Energy          =     -76.0028108395064947 [Eh]
	-----------------------------------------------------------

  -Total Gradient:
     Atom            X                  Y                   Z
    ------   -----------------  -----------------  -----------------
       1       -0.017573755131     0.026415839644     0.000000000000
       2        0.033431374836    -0.111508743000    -0.000000000000
       3       -0.015857619705     0.085092903356    -0.000000000000

*** Psi4 exiting successfully. Buy a developer a beer!
