                               Psi4 1.2a1.dev429

  ==> Input File <==

--------------------------------------------------------------------------
# density-fitted hartree fock energies and gradients with 6-31g
molecule h2o {
0 1
O 0.0000000000 0.0000000000 0.0000000000
H 0.0000000000 0.0000000000 1.3000000000
H 0.0000000000 1.0724622204 -0.8999026536
}

set basis 6-31g

gradient('mp2')
--------------------------------------------------------------------------

    Molecular point group: cs
  Charge       = 0
  Multiplicity = 1
  Basis Set: 6-31G
    Blend: 6-31G
  Basis Set: (6-31G AUX)
    Blend: CC-PVDZ-JKFIT

    Orbital Energies (a.u.)
    -----------------------

    Doubly Occupied:

       1Ap   -20.598807     2Ap    -1.212230     3Ap    -0.556828
       1App   -0.476600     4Ap    -0.463443

  @DF-RHF Final Energy:   -75.81905666138809

   => Energetics <=

    Nuclear Repulsion Energy =              6.4965654070202881
    One-Electron Energy =                -118.0154289331187272
    Two-Electron Energy =                  35.6998068647103537
    Total Energy =                        -75.8190566613880890
  Basis Set: (6-31G AUX)
    Blend: CC-PVDZ-RI
    Molecular point group: cs

    Geometry (in Angstrom), charge = 0, multiplicity = 1:

       Center              X                  Y                   Z               Mass
    ------------   -----------------  -----------------  -----------------  -----------------
           O          0.060012236743     0.022388421909     0.000000000000    15.994914619560
           H          0.060012236743    -1.277611578091     0.000000000000     1.007825032070
           H         -1.012449983657     0.922291075509     0.000000000000     1.007825032070

  Basis Set: 6-31G
    Blend: 6-31G
  Basis Set: (6-31G AUX)
    Blend: CC-PVDZ-JKFIT
  Basis Set: (6-31G AUX)
    Blend: CC-PVDZ-JKFIT
	 Reference Energy          =     -75.8190566613880890 [Eh]
	 Singles Energy            =      -0.0000000000000000 [Eh]
	 Same-Spin Energy          =      -0.0367441922983547 [Eh]
	 Opposite-Spin Energy      =      -0.1260857432526921 [Eh]
	 Correlation Energy        =      -0.1628299355510468 [Eh]
	 Total Energy              =     -75.9818865969391339 [Eh]

	 ================> DF-SCS-MP2 Energies <==================
	-----------------------------------------------------------
	 SCS Same-Spin Scale       =       0.3333333333333333 [-]
	 SCS Opposite-Spin Scale   =       1.2000000000000000 [-]
	 SCS Same-Spin Energy      =      -0.0122480640994516 [Eh]
	 SCS Opposite-Spin Energy  =      -0.1513028919032305 [Eh]
	 SCS Correlation Energy    =      -0.1635509560026821 [Eh]
	 SCS Total Energy          =     -75.9826076173907694 [Eh]
	-----------------------------------------------------------

  -Total Gradient:
     Atom            X                  Y                   Z
    ------   -----------------  -----------------  -----------------
       1        0.028184466624     0.013460338937     0.000000000000
       2        0.031820640613    -0.102382433659    -0.000000000000
       3       -0.060005107237     0.088922094722     0.000000000000

*** Psi4 exiting successfully. Buy a developer a beer!
