                               Psi4 1.3.1 release

  ==> Input File <==

--------------------------------------------------------------------------
# density fitted MP2
molecule h2o {
0 1
H 0.0000000000 0.0000000000 1.1125000000
H 0.0000000000 0.9375000000 0.0000000000
O 0.0000000000 0.0000000000 0.0000000000
}

set basis 6-31g
energy('mp2')

--------------------------------------------------------------------------

    Molecular point group: cs

    Geometry (in Angstrom), charge = 0, multiplicity = 1:

       Center              X                  Y                   Z               Mass
    ------------   -----------------  -----------------  -----------------  -----------------
         H            0.052460096854    -1.050247351734     0.000000000000     1.007825032230
         H           -0.885039903146     0.062252648266     0.000000000000     1.007825032230
         O            0.052460096854     0.062252648266     0.000000000000    15.994914619570

  Charge       = 0
  Multiplicity = 1
  Basis Set: 6-31G
    Blend: 6-31G
  Basis Set: (6-31G AUX)
    Blend: CC-PVDZ-JKFIT

    Orbital Energies [Eh]
    ---------------------

    Doubly Occupied:

       1Ap   -20.583711     2Ap    -1.345398     3Ap    -0.655390
       4Ap    -0.573601     1App   -0.506531

  @DF-RHF Final Energy:   -75.95625539246743

   => Energetics <=

    Nuclear Repulsion Energy =              8.6847002104801359
    One-Electron Energy =                -121.9526481634218271
    Two-Electron Energy =                  37.3116925604742704
    Total Energy =                        -75.9562553924674262

  Dipole Moment: [D]
     X:    -2.0411      Y:    -2.0052      Z:     0.0000     Total:     2.8613

  Basis Set: (6-31G AUX)
    Blend: CC-PVDZ-RI
	 Reference Energy          =     -75.9562553924674262 [Eh]
	 Singles Energy            =      -0.0000000000000000 [Eh]
	 Same-Spin Energy          =      -0.0315887961049492 [Eh]
	 Opposite-Spin Energy      =      -0.1048446121595947 [Eh]
	 Correlation Energy        =      -0.1364334082645439 [Eh]
	 Total Energy              =     -76.0926888007319633 [Eh]

	 ================> DF-SCS-MP2 Energies <==================
	-----------------------------------------------------------
	 SCS Same-Spin Scale       =       0.3333333333333333 [-]
	 SCS Opposite-Spin Scale   =       1.2000000000000000 [-]
	 SCS Same-Spin Energy      =      -0.0105295987016497 [Eh]
	 SCS Opposite-Spin Energy  =      -0.1258135345915137 [Eh]
	 SCS Correlation Energy    =      -0.1363431332931634 [Eh]
	 SCS Total Energy          =     -76.0925985257605930 [Eh]
	-----------------------------------------------------------

*** Psi4 exiting successfully. Buy a developer a beer!
