                               Psi4 1.2a1.dev429

  ==> Input File <==

--------------------------------------------------------------------------
# density-fitted hartree fock energies and gradients with 6-31g
molecule h20 {
0 1
O 0.0000000000 0.0000000000 0.0000000000
H 0.0000000000 0.0000000000 0.8000000000
H 0.0000000000 0.6062177826 -0.3500000000
}

set basis 6-31g

gradient('hf')
--------------------------------------------------------------------------

    Molecular point group: cs
  Charge       = 0
  Multiplicity = 1
  Basis Set: 6-31G
    Blend: 6-31G
  Basis Set: (6-31G AUX)
    Blend: CC-PVDZ-JKFIT

    Orbital Energies (a.u.)
    -----------------------

    Doubly Occupied:

       1Ap   -20.514307     2Ap    -1.479495     3Ap    -0.882470
       4Ap    -0.563361     1App   -0.516410

  @DF-RHF Final Energy:   -75.82815728237247

   => Energetics <=

    Nuclear Repulsion Energy =             11.7465710042405291
    One-Electron Energy =                -127.2373705709319154
    Two-Electron Energy =                  39.6626422843189061
    Total Energy =                        -75.8281572823724730
    Molecular point group: cs

    Geometry (in Angstrom), charge = 0, multiplicity = 1:

       Center              X                  Y                   Z               Mass
    ------------   -----------------  -----------------  -----------------  -----------------
           O          0.033922393158     0.025180846486     0.000000000000    15.994914619560
           H          0.033922393158    -0.774819153514     0.000000000000     1.007825032070
           H         -0.572295389442     0.375180846486     0.000000000000     1.007825032070

  Basis Set: 6-31G
    Blend: 6-31G
  Basis Set: (6-31G AUX)
    Blend: CC-PVDZ-JKFIT

  -Total Gradient:
     Atom            X                  Y                   Z
    ------   -----------------  -----------------  -----------------
       1       -0.621636444811     0.087570926402     0.000000000000
       2       -0.004091627377     0.279092895560     0.000000000000
       3        0.625728072188    -0.366663821962     0.000000000000

*** Psi4 exiting successfully. Buy a developer a beer!
