                               Psi4 1.2a1.dev429

  ==> Input File <==

--------------------------------------------------------------------------
# density-fitted hartree fock energies and gradients with 6-31g
molecule h2o {
0 1
O 0.0000000000 0.0000000000 0.0000000000
H 0.0000000000 0.0000000000 1.5000000000
H 0.0000000000 0.0000000000 -1.0000000000
}

set basis 6-31g

gradient('mp2')
--------------------------------------------------------------------------

    Molecular point group: c2v
  Charge       = 0
  Multiplicity = 1
  Basis Set: 6-31G
    Blend: 6-31G
  Basis Set: (6-31G AUX)
    Blend: CC-PVDZ-JKFIT

    Orbital Energies (a.u.)
    -----------------------

    Doubly Occupied:

       1A1   -20.490882     2A1    -1.192478     3A1    -0.584205
       1B2    -0.415580     1B1    -0.415580

  @DF-RHF Final Energy:   -75.79639014236170

   => Energetics <=

    Nuclear Repulsion Energy =              7.2673669979693329
    One-Electron Energy =                -119.9300634952200113
    Two-Electron Energy =                  36.8663063548889838
    Total Energy =                        -75.7963901423617017
  Basis Set: (6-31G AUX)
    Blend: CC-PVDZ-RI
    Molecular point group: c2v

    Geometry (in Angstrom), charge = 0, multiplicity = 1:

       Center              X                  Y                   Z               Mass
    ------------   -----------------  -----------------  -----------------  -----------------
           O          0.000000000000     0.000000000000    -0.027978718318    15.994914619560
           H          0.000000000000     0.000000000000     1.472021281682     1.007825032070
           H          0.000000000000     0.000000000000    -1.027978718318     1.007825032070

  Basis Set: 6-31G
    Blend: 6-31G
  Basis Set: (6-31G AUX)
    Blend: CC-PVDZ-JKFIT
  Basis Set: (6-31G AUX)
    Blend: CC-PVDZ-JKFIT
	 Reference Energy          =     -75.7963901423617017 [Eh]
	 Singles Energy            =      -0.0000000000000000 [Eh]
	 Same-Spin Energy          =      -0.0339102440015521 [Eh]
	 Opposite-Spin Energy      =      -0.1070562661375593 [Eh]
	 Correlation Energy        =      -0.1409665101391114 [Eh]
	 Total Energy              =     -75.9373566525008101 [Eh]

	 ================> DF-SCS-MP2 Energies <==================
	-----------------------------------------------------------
	 SCS Same-Spin Scale       =       0.3333333333333333 [-]
	 SCS Opposite-Spin Scale   =       1.2000000000000000 [-]
	 SCS Same-Spin Energy      =      -0.0113034146671840 [Eh]
	 SCS Opposite-Spin Energy  =      -0.1284675193650711 [Eh]
	 SCS Correlation Energy    =      -0.1397709340322552 [Eh]
	 SCS Total Energy          =     -75.9361610763939581 [Eh]
	-----------------------------------------------------------

  -Total Gradient:
     Atom            X                  Y                   Z
    ------   -----------------  -----------------  -----------------
       1        0.000000000000     0.000000000000    -0.102687884859
       2       -0.000000000000     0.000000000000     0.138446652311
       3       -0.000000000000    -0.000000000000    -0.035758767452

*** Psi4 exiting successfully. Buy a developer a beer!
