                               Psi4 1.2a1.dev429

  ==> Input File <==

--------------------------------------------------------------------------
# density-fitted hartree fock energies and gradients with 6-31g
molecule o2 {
0 3
O 0.0000000000 0.0000000000 0.0000000000
O 0.0000000000 0.0000000000 1.3857142857
}

set basis 6-31g
set reference rohf

energy('scf')
--------------------------------------------------------------------------

    Molecular point group: d2h

    Geometry (in Angstrom), charge = 0, multiplicity = 3:

       Center              X                  Y                   Z               Mass
    ------------   -----------------  -----------------  -----------------  -----------------
           O          0.000000000000     0.000000000000    -0.692857142850    15.994914619560
           O          0.000000000000     0.000000000000     0.692857142850    15.994914619560

  Charge       = 0
  Multiplicity = 3
  Basis Set: 6-31G
    Blend: 6-31G
  Basis Set: (6-31G AUX)
    Blend: CC-PVDZ-JKFIT

    Orbital Energies (a.u.)
    -----------------------

    Doubly Occupied:

       1Ag   -20.776380     1B1u  -20.775902     2Ag    -1.546350
       2B1u   -1.160562     3Ag    -0.672714     1B3u   -0.654570
       1B2u   -0.654570

    Singly Occupied:

       1B2g   -0.287684     1B3g   -0.287684

  @DF-ROHF Final Energy:  -149.48477683499988

   => Energetics <=

    Nuclear Repulsion Energy =             24.4403494279138158
    One-Electron Energy =                -254.1641227615472474
    Two-Electron Energy =                  80.2389964986335542
    Total Energy =                       -149.4847768349998773
*** Psi4 exiting successfully. Buy a developer a beer!
