                               Psi4 1.2a1.dev429

  ==> Input File <==

--------------------------------------------------------------------------
# density-fitted hartree fock energies and gradients with 6-31g
molecule h20 {
0 1
O 0.0000000000 0.0000000000 0.0000000000
H 0.0000000000 0.0000000000 1.0000000000
H 0.0000000000 0.7660444431 -0.6427876097
}

set basis 6-31g

gradient('hf')
--------------------------------------------------------------------------

    Molecular point group: c2v
  Charge       = 0
  Multiplicity = 1
  Basis Set: 6-31G
    Blend: 6-31G
  Basis Set: (6-31G AUX)
    Blend: CC-PVDZ-JKFIT

    Orbital Energies (a.u.)
    -----------------------

    Doubly Occupied:

       1A1   -20.545222     2A1    -1.307867     1B2    -0.718113
       3A1    -0.507410     1B1    -0.483725

  @DF-RHF Final Energy:   -75.97086734782209

   => Energetics <=

    Nuclear Repulsion Energy =              8.7587765610524535
    One-Electron Energy =                -122.3346160915778853
    Two-Electron Energy =                  37.6049721827033423
    Total Energy =                        -75.9708673478220931
    Molecular point group: c2v

    Geometry (in Angstrom), charge = 0, multiplicity = 1:

       Center              X                  Y                   Z               Mass
    ------------   -----------------  -----------------  -----------------  -----------------
           O         -0.000000000000     0.000000000000    -0.047297269204    15.994914619560
           H          0.000000000000    -0.906307787039     0.375320992525     1.007825032070
           H         -0.000000000000     0.906307787039     0.375320992525     1.007825032070

  Basis Set: 6-31G
    Blend: 6-31G
  Basis Set: (6-31G AUX)
    Blend: CC-PVDZ-JKFIT

  -Total Gradient:
     Atom            X                  Y                   Z
    ------   -----------------  -----------------  -----------------
       1        0.000000000000     0.000000000000    -0.000933853424
       2        0.000000000000    -0.062339082858     0.000466926712
       3       -0.000000000000     0.062339082858     0.000466926712

*** Psi4 exiting successfully. Buy a developer a beer!
