                               Psi4 1.2a1.dev429

  ==> Input File <==

--------------------------------------------------------------------------
# density-fitted hartree fock energies and gradients with 6-31g
molecule h20 {
0 1
O 0.0000000000 0.0000000000 0.0000000000
H 0.0000000000 0.0000000000 0.8000000000
H 0.0000000000 1.1276311449 -0.4104241720
}

set basis 6-31g

gradient('hf')
--------------------------------------------------------------------------

    Molecular point group: cs
  Charge       = 0
  Multiplicity = 1
  Basis Set: 6-31G
    Blend: 6-31G
  Basis Set: (6-31G AUX)
    Blend: CC-PVDZ-JKFIT

    Orbital Energies (a.u.)
    -----------------------

    Doubly Occupied:

       1Ap   -20.560323     2Ap    -1.367747     3Ap    -0.703678
       4Ap    -0.534993     1App   -0.499195

  @DF-RHF Final Energy:   -75.91032486808092

   => Energetics <=

    Nuclear Repulsion Energy =              9.1395017192642491
    One-Electron Energy =                -122.7677802854799296
    Two-Electron Energy =                  37.7179536981347567
    Total Energy =                        -75.9103248680809202
    Molecular point group: cs

    Geometry (in Angstrom), charge = 0, multiplicity = 1:

       Center              X                  Y                   Z               Mass
    ------------   -----------------  -----------------  -----------------  -----------------
           O          0.063099348340     0.021799664710     0.000000000000    15.994914619560
           H          0.063099348340    -0.778200335290     0.000000000000     1.007825032070
           H         -1.064531796560     0.432223836710     0.000000000000     1.007825032070

  Basis Set: 6-31G
    Blend: 6-31G
  Basis Set: (6-31G AUX)
    Blend: CC-PVDZ-JKFIT

  -Total Gradient:
     Atom            X                  Y                   Z
    ------   -----------------  -----------------  -----------------
       1        0.116217233794    -0.345700118939     0.000000000000
       2        0.004244974698     0.298843856472     0.000000000000
       3       -0.120462208493     0.046856262466     0.000000000000

*** Psi4 exiting successfully. Buy a developer a beer!
