                               Psi4 1.2a1.dev429

  ==> Input File <==

--------------------------------------------------------------------------
# density-fitted hartree fock energies and gradients with 6-31g
molecule h20 {
0 1
O 0.0000000000 0.0000000000 0.0000000000
H 0.0000000000 0.0000000000 0.8000000000
H 0.0000000000 0.8999026536 -1.0724622204
}

set basis 6-31g

gradient('hf')
--------------------------------------------------------------------------

    Molecular point group: cs
  Charge       = 0
  Multiplicity = 1
  Basis Set: 6-31G
    Blend: 6-31G
  Basis Set: (6-31G AUX)
    Blend: CC-PVDZ-JKFIT

    Orbital Energies (a.u.)
    -----------------------

    Doubly Occupied:

       1Ap   -20.533653     2Ap    -1.321642     3Ap    -0.677137
       1App   -0.471163     4Ap    -0.466743

  @DF-RHF Final Energy:   -75.83253916550503

   => Energetics <=

    Nuclear Repulsion Energy =              8.5703620886067533
    One-Electron Energy =                -121.8651254129869699
    Two-Electron Energy =                  37.4622241588751876
    Total Energy =                        -75.8325391655050254
    Molecular point group: cs

    Geometry (in Angstrom), charge = 0, multiplicity = 1:

       Center              X                  Y                   Z               Mass
    ------------   -----------------  -----------------  -----------------  -----------------
           O          0.050356245718    -0.015246287434     0.000000000000    15.994914619560
           H          0.050356245718    -0.815246287434     0.000000000000     1.007825032070
           H         -0.849546407882     1.057215932966     0.000000000000     1.007825032070

  Basis Set: 6-31G
    Blend: 6-31G
  Basis Set: (6-31G AUX)
    Blend: CC-PVDZ-JKFIT

  -Total Gradient:
     Atom            X                  Y                   Z
    ------   -----------------  -----------------  -----------------
       1        0.026587874123    -0.426623390784     0.000000000000
       2        0.047627554296     0.295836704377     0.000000000000
       3       -0.074215428419     0.130786686408     0.000000000000

*** Psi4 exiting successfully. Buy a developer a beer!
