                               Psi4 1.2a1.dev429

  ==> Input File <==

--------------------------------------------------------------------------
# density-fitted hartree fock energies and gradients with 6-31g
molecule h2o {
0 1
O 0.0000000000 0.0000000000 0.0000000000
H 0.0000000000 0.0000000000 1.5000000000
H 0.0000000000 0.8457233587 -0.3078181290
}

set basis 6-31g

gradient('mp2')
--------------------------------------------------------------------------

    Molecular point group: cs
  Charge       = 0
  Multiplicity = 1
  Basis Set: 6-31G
    Blend: 6-31G
  Basis Set: (6-31G AUX)
    Blend: CC-PVDZ-JKFIT

    Orbital Energies (a.u.)
    -----------------------

    Doubly Occupied:

       1Ap   -20.588324     2Ap    -1.309116     3Ap    -0.641456
       1App   -0.495674     4Ap    -0.487233

  @DF-RHF Final Energy:   -75.86680777968755

   => Energetics <=

    Nuclear Repulsion Energy =              7.7912133859254711
    One-Electron Energy =                -120.2724375599458142
    Two-Electron Energy =                  36.6144163943327925
    Total Energy =                        -75.8668077796875480
  Basis Set: (6-31G AUX)
    Blend: CC-PVDZ-RI
    Molecular point group: cs

    Geometry (in Angstrom), charge = 0, multiplicity = 1:

       Center              X                  Y                   Z               Mass
    ------------   -----------------  -----------------  -----------------  -----------------
           O          0.047324511256     0.066711441505     0.000000000000    15.994914619560
           H          0.047324511256    -1.433288558495     0.000000000000     1.007825032070
           H         -0.798398847444     0.374529570505     0.000000000000     1.007825032070

  Basis Set: 6-31G
    Blend: 6-31G
  Basis Set: (6-31G AUX)
    Blend: CC-PVDZ-JKFIT
  Basis Set: (6-31G AUX)
    Blend: CC-PVDZ-JKFIT
	 Reference Energy          =     -75.8668077796875480 [Eh]
	 Singles Energy            =      -0.0000000000000000 [Eh]
	 Same-Spin Energy          =      -0.0333278201001926 [Eh]
	 Opposite-Spin Energy      =      -0.1159197617887396 [Eh]
	 Correlation Energy        =      -0.1492475818889322 [Eh]
	 Total Energy              =     -76.0160553615764769 [Eh]

	 ================> DF-SCS-MP2 Energies <==================
	-----------------------------------------------------------
	 SCS Same-Spin Scale       =       0.3333333333333333 [-]
	 SCS Opposite-Spin Scale   =       1.2000000000000000 [-]
	 SCS Same-Spin Energy      =      -0.0111092733667309 [Eh]
	 SCS Opposite-Spin Energy  =      -0.1391037141464876 [Eh]
	 SCS Correlation Energy    =      -0.1502129875132184 [Eh]
	 SCS Total Energy          =     -76.0170207672007621 [Eh]
	-----------------------------------------------------------

  -Total Gradient:
     Atom            X                  Y                   Z
    ------   -----------------  -----------------  -----------------
       1       -0.116420785735     0.126473432490     0.000000000000
       2        0.010443487370    -0.106423734083     0.000000000000
       3        0.105977298364    -0.020049698407    -0.000000000000

*** Psi4 exiting successfully. Buy a developer a beer!
