                               Psi4 1.2a1.dev429

  ==> Input File <==

--------------------------------------------------------------------------
# density-fitted hartree fock energies and gradients with 6-31g
molecule h2o {
0 1
O 0.0000000000 0.0000000000 0.0000000000
H 0.0000000000 0.0000000000 0.8000000000
H 0.0000000000 1.1490666647 -0.9641814145
}

set basis 6-31g

gradient('mp2')
--------------------------------------------------------------------------

    Molecular point group: cs
  Charge       = 0
  Multiplicity = 1
  Basis Set: 6-31G
    Blend: 6-31G
  Basis Set: (6-31G AUX)
    Blend: CC-PVDZ-JKFIT

    Orbital Energies (a.u.)
    -----------------------

    Doubly Occupied:

       1Ap   -20.552008     2Ap    -1.331787     3Ap    -0.664330
       1App   -0.480706     4Ap    -0.467814

  @DF-RHF Final Energy:   -75.81759520592084

   => Energetics <=

    Nuclear Repulsion Energy =              8.3653939042579637
    One-Electron Energy =                -121.3726887713968949
    Two-Electron Energy =                  37.1896996612181070
    Total Energy =                        -75.8175952059208385
  Basis Set: (6-31G AUX)
    Blend: CC-PVDZ-RI
    Molecular point group: cs

    Geometry (in Angstrom), charge = 0, multiplicity = 1:

       Center              X                  Y                   Z               Mass
    ------------   -----------------  -----------------  -----------------  -----------------
           O          0.064298825081    -0.009187171099     0.000000000000    15.994914619560
           H          0.064298825081    -0.809187171099     0.000000000000     1.007825032070
           H         -1.084767839619     0.954994243401     0.000000000000     1.007825032070

  Basis Set: 6-31G
    Blend: 6-31G
  Basis Set: (6-31G AUX)
    Blend: CC-PVDZ-JKFIT
  Basis Set: (6-31G AUX)
    Blend: CC-PVDZ-JKFIT
	 Reference Energy          =     -75.8175952059208385 [Eh]
	 Singles Energy            =      -0.0000000000000000 [Eh]
	 Same-Spin Energy          =      -0.0322299274121509 [Eh]
	 Opposite-Spin Energy      =      -0.1106093007327114 [Eh]
	 Correlation Energy        =      -0.1428392281448623 [Eh]
	 Total Energy              =     -75.9604344340657036 [Eh]

	 ================> DF-SCS-MP2 Energies <==================
	-----------------------------------------------------------
	 SCS Same-Spin Scale       =       0.3333333333333333 [-]
	 SCS Opposite-Spin Scale   =       1.2000000000000000 [-]
	 SCS Same-Spin Energy      =      -0.0107433091373836 [Eh]
	 SCS Opposite-Spin Energy  =      -0.1327311608792537 [Eh]
	 SCS Correlation Energy    =      -0.1434744700166373 [Eh]
	 SCS Total Energy          =     -75.9610696759374804 [Eh]
	-----------------------------------------------------------

  -Total Gradient:
     Atom            X                  Y                   Z
    ------   -----------------  -----------------  -----------------
       1        0.027856745270    -0.417823468257     0.000000000000
       2        0.043358442302     0.327879936550     0.000000000000
       3       -0.071215187572     0.089943531708    -0.000000000000

*** Psi4 exiting successfully. Buy a developer a beer!
