                               Psi4 1.2a1.dev429

  ==> Input File <==

--------------------------------------------------------------------------
# density-fitted hartree fock energies and gradients with 6-31g
molecule h20 {
0 1
O 0.0000000000 0.0000000000 0.0000000000
H 0.0000000000 0.0000000000 0.7000000000
H 0.0000000000 0.9848077530 -0.1736481777
}

set basis 6-31g

gradient('hf')
--------------------------------------------------------------------------

    Molecular point group: cs
  Charge       = 0
  Multiplicity = 1
  Basis Set: 6-31G
    Blend: 6-31G
  Basis Set: (6-31G AUX)
    Blend: CC-PVDZ-JKFIT

    Orbital Energies (a.u.)
    -----------------------

    Doubly Occupied:

       1Ap   -20.543082     2Ap    -1.459172     3Ap    -0.764049
       4Ap    -0.581322     1App   -0.513328

  @DF-RHF Final Energy:   -75.84912609811549

   => Energetics <=

    Nuclear Repulsion Energy =             10.6831223314697858
    One-Electron Energy =                -125.3425902081346521
    Two-Electron Energy =                  38.8103417785493718
    Total Energy =                        -75.8491260981154909
    Molecular point group: cs

    Geometry (in Angstrom), charge = 0, multiplicity = 1:

       Center              X                  Y                   Z               Mass
    ------------   -----------------  -----------------  -----------------  -----------------
           O          0.055107317437     0.029453298745     0.000000000000    15.994914619560
           H          0.055107317437    -0.670546701255     0.000000000000     1.007825032070
           H         -0.929700435563     0.203101476445     0.000000000000     1.007825032070

  Basis Set: 6-31G
    Blend: 6-31G
  Basis Set: (6-31G AUX)
    Blend: CC-PVDZ-JKFIT

  -Total Gradient:
     Atom            X                  Y                   Z
    ------   -----------------  -----------------  -----------------
       1        0.084330173653    -0.722750155406     0.000000000000
       2       -0.039032245661     0.742506974872     0.000000000000
       3       -0.045297927992    -0.019756819466     0.000000000000

*** Psi4 exiting successfully. Buy a developer a beer!
