                               Psi4 1.2a1.dev429

  ==> Input File <==

--------------------------------------------------------------------------
# density-fitted hartree fock energies and gradients with 6-31g
molecule h20 {
0 1
O 0.0000000000 0.0000000000 0.0000000000
H 0.0000000000 0.0000000000 1.0000000000
H 0.0000000000 1.2216004070 -0.4446261863
}

set basis 6-31g

gradient('hf')
--------------------------------------------------------------------------

    Molecular point group: cs
  Charge       = 0
  Multiplicity = 1
  Basis Set: 6-31G
    Blend: 6-31G
  Basis Set: (6-31G AUX)
    Blend: CC-PVDZ-JKFIT

    Orbital Energies (a.u.)
    -----------------------

    Doubly Occupied:

       1Ap   -20.588698     2Ap    -1.286370     3Ap    -0.633249
       4Ap    -0.513814     1App   -0.493166

  @DF-RHF Final Energy:   -75.91964947372261

   => Energetics <=

    Nuclear Repulsion Energy =              7.7696008516406945
    One-Electron Energy =                -120.3479066281985297
    Two-Electron Energy =                  36.6586563028352259
    Total Energy =                        -75.9196494737226146
    Molecular point group: cs

    Geometry (in Angstrom), charge = 0, multiplicity = 1:

       Center              X                  Y                   Z               Mass
    ------------   -----------------  -----------------  -----------------  -----------------
           O          0.068357627369     0.031077294990     0.000000000000    15.994914619560
           H          0.068357627369    -0.968922705010     0.000000000000     1.007825032070
           H         -1.153242779631     0.475703481290     0.000000000000     1.007825032070

  Basis Set: 6-31G
    Blend: 6-31G
  Basis Set: (6-31G AUX)
    Blend: CC-PVDZ-JKFIT

  -Total Gradient:
     Atom            X                  Y                   Z
    ------   -----------------  -----------------  -----------------
       1        0.112985173373    -0.012264933743     0.000000000000
       2        0.010470183454    -0.041240016321     0.000000000000
       3       -0.123455356827     0.053504950064     0.000000000000

*** Psi4 exiting successfully. Buy a developer a beer!
