                               Psi4 1.3.1 release

  ==> Input File <==

--------------------------------------------------------------------------
# density fitted MP2
molecule h2o {
0 1
H 0.0000000000 0.0000000000 1.2000000000
H 0.0000000000 0.8661370617 -0.3587657178
O 0.0000000000 0.0000000000 0.0000000000
}

set basis 6-31g
energy('mp2')

--------------------------------------------------------------------------

    Molecular point group: cs

    Geometry (in Angstrom), charge = 0, multiplicity = 1:

       Center              X                  Y                   Z               Mass
    ------------   -----------------  -----------------  -----------------  -----------------
         H            0.048466809755    -1.152926685951     0.000000000000     1.007825032230
         H           -0.817670251945     0.405839031849     0.000000000000     1.007825032230
         O            0.048466809755     0.047073314049     0.000000000000    15.994914619570

  Charge       = 0
  Multiplicity = 1
  Basis Set: 6-31G
    Blend: 6-31G
  Basis Set: (6-31G AUX)
    Blend: CC-PVDZ-JKFIT

    Orbital Energies [Eh]
    ---------------------

    Doubly Occupied:

       1Ap   -20.572568     2Ap    -1.311054     3Ap    -0.668123
       4Ap    -0.524537     1App   -0.492997

  @DF-RHF Final Energy:   -75.94538548145457

   => Energetics <=

    Nuclear Repulsion Energy =              8.3402440609015525
    One-Electron Energy =                -121.4327012669521650
    Two-Electron Energy =                  37.1470717245960529
    Total Energy =                        -75.9453854814545650

  Dipole Moment: [D]
     X:    -2.0120      Y:    -1.4974      Z:     0.0000     Total:     2.5081

  Basis Set: (6-31G AUX)
    Blend: CC-PVDZ-RI
	 Reference Energy          =     -75.9453854814545650 [Eh]
	 Singles Energy            =      -0.0000000000000000 [Eh]
	 Same-Spin Energy          =      -0.0320326138420917 [Eh]
	 Opposite-Spin Energy      =      -0.1057387441311197 [Eh]
	 Correlation Energy        =      -0.1377713579732114 [Eh]
	 Total Energy              =     -76.0831568394277724 [Eh]

	 ================> DF-SCS-MP2 Energies <==================
	-----------------------------------------------------------
	 SCS Same-Spin Scale       =       0.3333333333333333 [-]
	 SCS Opposite-Spin Scale   =       1.2000000000000000 [-]
	 SCS Same-Spin Energy      =      -0.0106775379473639 [Eh]
	 SCS Opposite-Spin Energy  =      -0.1268864929573436 [Eh]
	 SCS Correlation Energy    =      -0.1375640309047075 [Eh]
	 SCS Total Energy          =     -76.0829495123592778 [Eh]
	-----------------------------------------------------------

*** Psi4 exiting successfully. Buy a developer a beer!
