                               Psi4 1.2a1.dev429

  ==> Input File <==

--------------------------------------------------------------------------
# density-fitted hartree fock energies and gradients with 6-31g
molecule h20 {
0 1
O 0.0000000000 0.0000000000 0.0000000000
H 0.0000000000 0.0000000000 0.7000000000
H 0.0000000000 0.4000000000 -0.6928203230
}

set basis 6-31g

gradient('hf')
--------------------------------------------------------------------------

    Molecular point group: cs
  Charge       = 0
  Multiplicity = 1
  Basis Set: 6-31G
    Blend: 6-31G
  Basis Set: (6-31G AUX)
    Blend: CC-PVDZ-JKFIT

    Orbital Energies (a.u.)
    -----------------------

    Doubly Occupied:

       1Ap   -20.500010     2Ap    -1.442052     3Ap    -0.930948
       4Ap    -0.522123     1App   -0.509975

  @DF-RHF Final Energy:   -75.81750921051352

   => Energetics <=

    Nuclear Repulsion Energy =             11.7046830611219104
    One-Electron Energy =                -127.2341710305672677
    Two-Electron Energy =                  39.7119787589318278
    Total Energy =                        -75.8175092105135207
    Molecular point group: cs

    Geometry (in Angstrom), charge = 0, multiplicity = 1:

       Center              X                  Y                   Z               Mass
    ------------   -----------------  -----------------  -----------------  -----------------
           O          0.022382974654     0.000401756321     0.000000000000    15.994914619560
           H          0.022382974654    -0.699598243679     0.000000000000     1.007825032070
           H         -0.377617025346     0.693222079321     0.000000000000     1.007825032070

  Basis Set: 6-31G
    Blend: 6-31G
  Basis Set: (6-31G AUX)
    Blend: CC-PVDZ-JKFIT

  -Total Gradient:
     Atom            X                  Y                   Z
    ------   -----------------  -----------------  -----------------
       1       -0.172595292990    -0.494483822486     0.000000000000
       2        0.024627462145     0.707673564732     0.000000000000
       3        0.147967830845    -0.213189742246     0.000000000000

*** Psi4 exiting successfully. Buy a developer a beer!
