                               Psi4 1.3.1 release

  ==> Input File <==

--------------------------------------------------------------------------
# density fitted MP2
molecule h2o {
0 1
H 0.0000000000 0.0000000000 1.2000000000
H 0.0000000000 0.9469765208 -0.3922505182
O 0.0000000000 0.0000000000 0.0000000000
}

set basis 6-31g
energy('mp2')

--------------------------------------------------------------------------

    Molecular point group: cs

    Geometry (in Angstrom), charge = 0, multiplicity = 1:

       Center              X                  Y                   Z               Mass
    ------------   -----------------  -----------------  -----------------  -----------------
         H            0.052990378666    -1.154800409548     0.000000000000     1.007825032230
         H           -0.893986142134     0.437450108652     0.000000000000     1.007825032230
         O            0.052990378666     0.045199590452     0.000000000000    15.994914619570

  Charge       = 0
  Multiplicity = 1
  Basis Set: 6-31G
    Blend: 6-31G
  Basis Set: (6-31G AUX)
    Blend: CC-PVDZ-JKFIT

    Orbital Energies [Eh]
    ---------------------

    Doubly Occupied:

       1Ap   -20.581662     2Ap    -1.286958     3Ap    -0.644506
       4Ap    -0.520497     1App   -0.491255

  @DF-RHF Final Energy:   -75.94111100811196

   => Energetics <=

    Nuclear Repulsion Energy =              7.9436561445898644
    One-Electron Energy =                -120.7197785883490582
    Two-Electron Energy =                  36.8350114356472318
    Total Energy =                        -75.9411110081119602

  Dipole Moment: [D]
     X:    -2.0484      Y:    -1.4482      Z:     0.0000     Total:     2.5086

  Basis Set: (6-31G AUX)
    Blend: CC-PVDZ-RI
	 Reference Energy          =     -75.9411110081119602 [Eh]
	 Singles Energy            =      -0.0000000000000000 [Eh]
	 Same-Spin Energy          =      -0.0329997392953657 [Eh]
	 Opposite-Spin Energy      =      -0.1090786001979322 [Eh]
	 Correlation Energy        =      -0.1420783394932979 [Eh]
	 Total Energy              =     -76.0831893476052556 [Eh]

	 ================> DF-SCS-MP2 Energies <==================
	-----------------------------------------------------------
	 SCS Same-Spin Scale       =       0.3333333333333333 [-]
	 SCS Opposite-Spin Scale   =       1.2000000000000000 [-]
	 SCS Same-Spin Energy      =      -0.0109999130984552 [Eh]
	 SCS Opposite-Spin Energy  =      -0.1308943202375186 [Eh]
	 SCS Correlation Energy    =      -0.1418942333359738 [Eh]
	 SCS Total Energy          =     -76.0830052414479354 [Eh]
	-----------------------------------------------------------

*** Psi4 exiting successfully. Buy a developer a beer!
