                               Psi4 1.2a1.dev429

  ==> Input File <==

--------------------------------------------------------------------------
# density-fitted hartree fock energies and gradients with 6-31g
molecule o2 {
0 3
O 0.0000000000 0.0000000000 0.0000000000
O 0.0000000000 0.0000000000 1.2737373737
}

set basis 6-31g
set reference rohf

gradient('scf')
--------------------------------------------------------------------------

    Molecular point group: d2h
  Charge       = 0
  Multiplicity = 3
  Basis Set: 6-31G
    Blend: 6-31G
  Basis Set: (6-31G AUX)
    Blend: CC-PVDZ-JKFIT

    Orbital Energies (a.u.)
    -----------------------

    Doubly Occupied:

       1Ag   -20.759928     1B1u  -20.759275     2Ag    -1.629912
       2B1u   -1.124946     3Ag    -0.704599     1B3u   -0.690517
       1B2u   -0.690517

    Singly Occupied:

       1B2g   -0.253940     1B3g   -0.253940

  @DF-ROHF Final Energy:  -149.51807471179541

   => Energetics <=

    Nuclear Repulsion Energy =             26.5889515759287782
    One-Electron Energy =                -258.3464195346486463
    Two-Electron Energy =                  82.2393932469244504
    Total Energy =                       -149.5180747117954070
    Molecular point group: d2h

    Geometry (in Angstrom), charge = 0, multiplicity = 3:

       Center              X                  Y                   Z               Mass
    ------------   -----------------  -----------------  -----------------  -----------------
           O          0.000000000000     0.000000000000    -0.636868686850    15.994914619560
           O          0.000000000000     0.000000000000     0.636868686850    15.994914619560

  Basis Set: 6-31G
    Blend: 6-31G
  Basis Set: (6-31G AUX)
    Blend: CC-PVDZ-JKFIT

  -Total Gradient:
     Atom            X                  Y                   Z
    ------   -----------------  -----------------  -----------------
       1        0.000000000000     0.000000000000    -0.115660602336
       2       -0.000000000000     0.000000000000     0.115660602336

*** Psi4 exiting successfully. Buy a developer a beer!
