                               Psi4 1.2a1.dev429

  ==> Input File <==

--------------------------------------------------------------------------
# density-fitted hartree fock energies and gradients with 6-31g
molecule h2o {
0 1
O 0.0000000000 0.0000000000 0.0000000000
H 0.0000000000 0.0000000000 0.9000000000
H 0.0000000000 1.3787308542 -0.2431074487
}

set basis 6-31g

gradient('mp2')
--------------------------------------------------------------------------

    Molecular point group: cs
  Charge       = 0
  Multiplicity = 1
  Basis Set: 6-31G
    Blend: 6-31G
  Basis Set: (6-31G AUX)
    Blend: CC-PVDZ-JKFIT

    Orbital Energies (a.u.)
    -----------------------

    Doubly Occupied:

       1Ap   -20.592986     2Ap    -1.321542     3Ap    -0.645979
       4Ap    -0.513710     1App   -0.502061

  @DF-RHF Final Energy:   -75.89347374228115

   => Energetics <=

    Nuclear Repulsion Energy =              8.0231358687432106
    One-Electron Energy =                -120.6806630651345245
    Two-Electron Energy =                  36.7640534541101758
    Total Energy =                        -75.8934737422811452
  Basis Set: (6-31G AUX)
    Blend: CC-PVDZ-RI
    Molecular point group: cs

    Geometry (in Angstrom), charge = 0, multiplicity = 1:

       Center              X                  Y                   Z               Mass
    ------------   -----------------  -----------------  -----------------  -----------------
           O          0.077150244412     0.036758023316     0.000000000000    15.994914619560
           H          0.077150244412    -0.863241976684     0.000000000000     1.007825032070
           H         -1.301580609788     0.279865472016     0.000000000000     1.007825032070

  Basis Set: 6-31G
    Blend: 6-31G
  Basis Set: (6-31G AUX)
    Blend: CC-PVDZ-JKFIT
  Basis Set: (6-31G AUX)
    Blend: CC-PVDZ-JKFIT
	 Reference Energy          =     -75.8934737422811452 [Eh]
	 Singles Energy            =      -0.0000000000000000 [Eh]
	 Same-Spin Energy          =      -0.0328853079647705 [Eh]
	 Opposite-Spin Energy      =      -0.1127873822895676 [Eh]
	 Correlation Energy        =      -0.1456726902543382 [Eh]
	 Total Energy              =     -76.0391464325354889 [Eh]

	 ================> DF-SCS-MP2 Energies <==================
	-----------------------------------------------------------
	 SCS Same-Spin Scale       =       0.3333333333333333 [-]
	 SCS Opposite-Spin Scale   =       1.2000000000000000 [-]
	 SCS Same-Spin Energy      =      -0.0109617693215902 [Eh]
	 SCS Opposite-Spin Energy  =      -0.1353448587474812 [Eh]
	 SCS Correlation Energy    =      -0.1463066280690714 [Eh]
	 SCS Total Energy          =     -76.0397803703502149 [Eh]
	-----------------------------------------------------------

  -Total Gradient:
     Atom            X                  Y                   Z
    ------   -----------------  -----------------  -----------------
       1        0.105423433222    -0.126832942023     0.000000000000
       2        0.000380567043     0.107928421543     0.000000000000
       3       -0.105804000265     0.018904520479    -0.000000000000

*** Psi4 exiting successfully. Buy a developer a beer!
