                               Psi4 1.2a1.dev429

  ==> Input File <==

--------------------------------------------------------------------------
# density-fitted hartree fock energies and gradients with 6-31g
molecule h2o {
0 1
O 0.0000000000 0.0000000000 0.0000000000
H 0.0000000000 0.0000000000 0.8000000000
H 0.0000000000 0.1389185421 -0.7878462024
}

set basis 6-31g

gradient('mp2')
--------------------------------------------------------------------------

    Molecular point group: c2v
  Charge       = 0
  Multiplicity = 1
  Basis Set: 6-31G
    Blend: 6-31G
  Basis Set: (6-31G AUX)
    Blend: CC-PVDZ-JKFIT

    Orbital Energies (a.u.)
    -----------------------

    Doubly Occupied:

       1A1   -20.497352     2A1    -1.389978     1B2    -0.898996
       3A1    -0.498577     1B1    -0.497287

  @DF-RHF Final Energy:   -75.89427189644782

   => Energetics <=

    Nuclear Repulsion Energy =             10.9155432841288196
    One-Electron Energy =                -126.0552505202383884
    Two-Electron Energy =                  39.2454353396617535
    Total Energy =                        -75.8942718964478189
  Basis Set: (6-31G AUX)
    Blend: CC-PVDZ-RI
    Molecular point group: c2v

    Geometry (in Angstrom), charge = 0, multiplicity = 1:

       Center              X                  Y                   Z               Mass
    ------------   -----------------  -----------------  -----------------  -----------------
           O          0.000000000000     0.000000000000    -0.007803219122    15.994914619560
           H          0.000000000000    -0.796955758467     0.061921375060     1.007825032070
           H         -0.000000000000     0.796955758467     0.061921375060     1.007825032070

  Basis Set: 6-31G
    Blend: 6-31G
  Basis Set: (6-31G AUX)
    Blend: CC-PVDZ-JKFIT
  Basis Set: (6-31G AUX)
    Blend: CC-PVDZ-JKFIT
	 Reference Energy          =     -75.8942718964478189 [Eh]
	 Singles Energy            =      -0.0000000000000000 [Eh]
	 Same-Spin Energy          =      -0.0273246696069655 [Eh]
	 Opposite-Spin Energy      =      -0.0866691915645110 [Eh]
	 Correlation Energy        =      -0.1139938611714765 [Eh]
	 Total Energy              =     -76.0082657576192986 [Eh]

	 ================> DF-SCS-MP2 Energies <==================
	-----------------------------------------------------------
	 SCS Same-Spin Scale       =       0.3333333333333333 [-]
	 SCS Opposite-Spin Scale   =       1.2000000000000000 [-]
	 SCS Same-Spin Energy      =      -0.0091082232023218 [Eh]
	 SCS Opposite-Spin Energy  =      -0.1040030298774132 [Eh]
	 SCS Correlation Energy    =      -0.1131112530797350 [Eh]
	 SCS Total Energy          =     -76.0073831495275556 [Eh]
	-----------------------------------------------------------

  -Total Gradient:
     Atom            X                  Y                   Z
    ------   -----------------  -----------------  -----------------
       1       -0.000000000000     0.000000000073     0.072874366982
       2        0.000000000000     0.275868448952    -0.036437183489
       3        0.000000000000    -0.275868449025    -0.036437183493

*** Psi4 exiting successfully. Buy a developer a beer!
