                               Psi4 1.2a1.dev429

  ==> Input File <==

--------------------------------------------------------------------------
# density-fitted hartree fock energies and gradients with 6-31g
molecule h2o {
0 1
O 0.0000000000 0.0000000000 0.0000000000
H 0.0000000000 0.0000000000 0.9000000000
H 0.0000000000 0.5000000000 -0.8660254038
}

set basis 6-31g

gradient('mp2')
--------------------------------------------------------------------------

    Molecular point group: cs
  Charge       = 0
  Multiplicity = 1
  Basis Set: 6-31G
    Blend: 6-31G
  Basis Set: (6-31G AUX)
    Blend: CC-PVDZ-JKFIT

    Orbital Energies (a.u.)
    -----------------------

    Doubly Occupied:

       1Ap   -20.518674     2Ap    -1.314563     3Ap    -0.764973
       4Ap    -0.485361     1App   -0.476523

  @DF-RHF Final Energy:   -75.95395371956751

   => Energetics <=

    Nuclear Repulsion Energy =              9.2255256514568913
    One-Electron Energy =                -123.2387704121655503
    Two-Electron Energy =                  38.0592910411411580
    Total Energy =                        -75.9539537195674939
  Basis Set: (6-31G AUX)
    Blend: CC-PVDZ-RI
    Molecular point group: cs

    Geometry (in Angstrom), charge = 0, multiplicity = 1:

       Center              X                  Y                   Z               Mass
    ------------   -----------------  -----------------  -----------------  -----------------
           O          0.027978718318     0.001901131314     0.000000000000    15.994914619560
           H          0.027978718318    -0.898098868686     0.000000000000     1.007825032070
           H         -0.472021281682     0.867926535114     0.000000000000     1.007825032070

  Basis Set: 6-31G
    Blend: 6-31G
  Basis Set: (6-31G AUX)
    Blend: CC-PVDZ-JKFIT
  Basis Set: (6-31G AUX)
    Blend: CC-PVDZ-JKFIT
	 Reference Energy          =     -75.9539537195675081 [Eh]
	 Singles Energy            =      -0.0000000000000000 [Eh]
	 Same-Spin Energy          =      -0.0303568514281758 [Eh]
	 Opposite-Spin Energy      =      -0.0956629518628076 [Eh]
	 Correlation Energy        =      -0.1260198032909834 [Eh]
	 Total Energy              =     -76.0799735228584950 [Eh]

	 ================> DF-SCS-MP2 Energies <==================
	-----------------------------------------------------------
	 SCS Same-Spin Scale       =       0.3333333333333333 [-]
	 SCS Opposite-Spin Scale   =       1.2000000000000000 [-]
	 SCS Same-Spin Energy      =      -0.0101189504760586 [Eh]
	 SCS Opposite-Spin Energy  =      -0.1147955422353691 [Eh]
	 SCS Correlation Energy    =      -0.1249144927114277 [Eh]
	 SCS Total Energy          =     -76.0788682122789339 [Eh]
	-----------------------------------------------------------

  -Total Gradient:
     Atom            X                  Y                   Z
    ------   -----------------  -----------------  -----------------
       1       -0.033427764077    -0.127938418300    -0.000000000000
       2        0.033443561512     0.067712646304     0.000000000000
       3       -0.000015797436     0.060225771996     0.000000000000

*** Psi4 exiting successfully. Buy a developer a beer!
