                               Psi4 1.2a1.dev429

  ==> Input File <==

--------------------------------------------------------------------------
# density-fitted hartree fock energies and gradients with 6-31g
molecule h2o {
0 1
O 0.0000000000 0.0000000000 0.0000000000
H 0.0000000000 0.0000000000 1.3000000000
H 0.0000000000 0.6500000000 -1.1258330249
}

set basis 6-31g

gradient('mp2')
--------------------------------------------------------------------------

    Molecular point group: c2v
  Charge       = 0
  Multiplicity = 1
  Basis Set: 6-31G
    Blend: 6-31G
  Basis Set: (6-31G AUX)
    Blend: CC-PVDZ-JKFIT

    Orbital Energies (a.u.)
    -----------------------

    Doubly Occupied:

       1A1   -20.556228     2A1    -1.193233     1B2    -0.570748
       1B1    -0.450549     3A1    -0.440020

  @DF-RHF Final Energy:   -75.81703650015692

   => Energetics <=

    Nuclear Repulsion Energy =              6.7236597054864626
    One-Electron Energy =                -118.6598378701263243
    Two-Electron Energy =                  36.1191416644829388
    Total Energy =                        -75.8170365001569166
  Basis Set: (6-31G AUX)
    Blend: CC-PVDZ-RI
    Molecular point group: c2v

    Geometry (in Angstrom), charge = 0, multiplicity = 1:

       Center              X                  Y                   Z               Mass
    ------------   -----------------  -----------------  -----------------  -----------------
           O         -0.000000000000     0.000000000000    -0.037655410823    15.994914619560
           H          0.000000000000    -1.255703574166     0.298809347812     1.007825032070
           H         -0.000000000000     1.255703574166     0.298809347812     1.007825032070

  Basis Set: 6-31G
    Blend: 6-31G
  Basis Set: (6-31G AUX)
    Blend: CC-PVDZ-JKFIT
  Basis Set: (6-31G AUX)
    Blend: CC-PVDZ-JKFIT
	 Reference Energy          =     -75.8170365001569166 [Eh]
	 Singles Energy            =      -0.0000000000000000 [Eh]
	 Same-Spin Energy          =      -0.0354726452848876 [Eh]
	 Opposite-Spin Energy      =      -0.1173135166769010 [Eh]
	 Correlation Energy        =      -0.1527861619617886 [Eh]
	 Total Energy              =     -75.9698226621187018 [Eh]

	 ================> DF-SCS-MP2 Energies <==================
	-----------------------------------------------------------
	 SCS Same-Spin Scale       =       0.3333333333333333 [-]
	 SCS Opposite-Spin Scale   =       1.2000000000000000 [-]
	 SCS Same-Spin Energy      =      -0.0118242150949625 [Eh]
	 SCS Opposite-Spin Energy  =      -0.1407762200122812 [Eh]
	 SCS Correlation Energy    =      -0.1526004351072437 [Eh]
	 SCS Total Energy          =     -75.9696369352641625 [Eh]
	-----------------------------------------------------------

  -Total Gradient:
     Atom            X                  Y                   Z
    ------   -----------------  -----------------  -----------------
       1        0.000000000000     0.000000000004     0.022363394132
       2        0.000000000000    -0.117643424945    -0.011181697066
       3       -0.000000000000     0.117643424941    -0.011181697066

*** Psi4 exiting successfully. Buy a developer a beer!
