                               Psi4 1.2a1.dev429

  ==> Input File <==

--------------------------------------------------------------------------
# density-fitted hartree fock energies and gradients with 6-31g
molecule h20 {
0 1
O 0.0000000000 0.0000000000 0.0000000000
H 0.0000000000 0.0000000000 1.1000000000
H 0.0000000000 0.2394141003 -0.6577848346
}

set basis 6-31g

gradient('hf')
--------------------------------------------------------------------------

    Molecular point group: cs
  Charge       = 0
  Multiplicity = 1
  Basis Set: 6-31G
    Blend: 6-31G
  Basis Set: (6-31G AUX)
    Blend: CC-PVDZ-JKFIT

    Orbital Energies (a.u.)
    -----------------------

    Doubly Occupied:

       1Ap   -20.500945     2Ap    -1.376002     3Ap    -0.796142
       4Ap    -0.482383     1App   -0.479073

  @DF-RHF Final Energy:   -75.80740740324977

   => Energetics <=

    Nuclear Repulsion Energy =             10.1945947026464818
    One-Electron Energy =                -124.7349157358982552
    Two-Electron Energy =                  38.7329136300019883
    Total Energy =                        -75.8074074032497833
    Molecular point group: cs

    Geometry (in Angstrom), charge = 0, multiplicity = 1:

       Center              X                  Y                   Z               Mass
    ------------   -----------------  -----------------  -----------------  -----------------
           O          0.013396999347     0.024745227097     0.000000000000    15.994914619560
           H          0.013396999347    -1.075254772903     0.000000000000     1.007825032070
           H         -0.226017100953     0.682530061697     0.000000000000     1.007825032070

  Basis Set: 6-31G
    Blend: 6-31G
  Basis Set: (6-31G AUX)
    Blend: CC-PVDZ-JKFIT

  -Total Gradient:
     Atom            X                  Y                   Z
    ------   -----------------  -----------------  -----------------
       1       -0.294517638571     0.807196156935     0.000000000000
       2        0.019453340692    -0.140842553494     0.000000000000
       3        0.275064297879    -0.666353603441     0.000000000000

*** Psi4 exiting successfully. Buy a developer a beer!
