                               Psi4 1.2a1.dev429

  ==> Input File <==

--------------------------------------------------------------------------
# density-fitted hartree fock energies and gradients with 6-31g
molecule h20 {
0 1
O 0.0000000000 0.0000000000 0.0000000000
H 0.0000000000 0.0000000000 0.8000000000
H 0.0000000000 0.8457233587 -0.3078181290
}

set basis 6-31g

gradient('hf')
--------------------------------------------------------------------------

    Molecular point group: cs
  Charge       = 0
  Multiplicity = 1
  Basis Set: 6-31G
    Blend: 6-31G
  Basis Set: (6-31G AUX)
    Blend: CC-PVDZ-JKFIT

    Orbital Energies (a.u.)
    -----------------------

    Doubly Occupied:

       1Ap   -20.535770     2Ap    -1.418625     3Ap    -0.786945
       4Ap    -0.565615     1App   -0.507331

  @DF-RHF Final Energy:   -75.94768252808888

   => Energetics <=

    Nuclear Repulsion Energy =             10.3752511476363036
    One-Electron Energy =                -125.0172935141613095
    Two-Electron Energy =                  38.6943598384361280
    Total Energy =                        -75.9476825280888761
    Molecular point group: cs

    Geometry (in Angstrom), charge = 0, multiplicity = 1:

       Center              X                  Y                   Z               Mass
    ------------   -----------------  -----------------  -----------------  -----------------
           O          0.047324511256     0.027541235860     0.000000000000    15.994914619560
           H          0.047324511256    -0.772458764140     0.000000000000     1.007825032070
           H         -0.798398847444     0.335359364860     0.000000000000     1.007825032070

  Basis Set: 6-31G
    Blend: 6-31G
  Basis Set: (6-31G AUX)
    Blend: CC-PVDZ-JKFIT

  -Total Gradient:
     Atom            X                  Y                   Z
    ------   -----------------  -----------------  -----------------
       1       -0.043512064953    -0.259500395658     0.000000000000
       2       -0.013374758707     0.292857169433     0.000000000000
       3        0.056886823660    -0.033356773775     0.000000000000

*** Psi4 exiting successfully. Buy a developer a beer!
