                               Psi4 1.2a1.dev429

  ==> Input File <==

--------------------------------------------------------------------------
# density-fitted hartree fock energies and gradients with 6-31g
molecule h2o {
0 1
O 0.0000000000 0.0000000000 0.0000000000
H 0.0000000000 0.0000000000 0.8000000000
H 0.0000000000 0.7500000000 -1.2990381057
}

set basis 6-31g

gradient('mp2')
--------------------------------------------------------------------------

    Molecular point group: cs
  Charge       = 0
  Multiplicity = 1
  Basis Set: 6-31G
    Blend: 6-31G
  Basis Set: (6-31G AUX)
    Blend: CC-PVDZ-JKFIT

    Orbital Energies (a.u.)
    -----------------------

    Doubly Occupied:

       1Ap   -20.519145     2Ap    -1.304400     3Ap    -0.655397
       1App   -0.457261     4Ap    -0.443597

  @DF-RHF Final Energy:   -75.79172118182944

   => Energetics <=

    Nuclear Repulsion Energy =              8.3514557111986196
    One-Electron Energy =                -121.5267515068458550
    Two-Electron Energy =                  37.3835746138177996
    Total Energy =                        -75.7917211818294305
  Basis Set: (6-31G AUX)
    Blend: CC-PVDZ-RI
    Molecular point group: cs

    Geometry (in Angstrom), charge = 0, multiplicity = 1:

       Center              X                  Y                   Z               Mass
    ------------   -----------------  -----------------  -----------------  -----------------
           O          0.041968077477    -0.027924893179     0.000000000000    15.994914619560
           H          0.041968077477    -0.827924893179     0.000000000000     1.007825032070
           H         -0.708031922523     1.271113212521     0.000000000000     1.007825032070

  Basis Set: 6-31G
    Blend: 6-31G
  Basis Set: (6-31G AUX)
    Blend: CC-PVDZ-JKFIT
  Basis Set: (6-31G AUX)
    Blend: CC-PVDZ-JKFIT
	 Reference Energy          =     -75.7917211818294447 [Eh]
	 Singles Energy            =      -0.0000000000000000 [Eh]
	 Same-Spin Energy          =      -0.0326527482328865 [Eh]
	 Opposite-Spin Energy      =      -0.1087550391989620 [Eh]
	 Correlation Energy        =      -0.1414077874318485 [Eh]
	 Total Energy              =     -75.9331289692612899 [Eh]

	 ================> DF-SCS-MP2 Energies <==================
	-----------------------------------------------------------
	 SCS Same-Spin Scale       =       0.3333333333333333 [-]
	 SCS Opposite-Spin Scale   =       1.2000000000000000 [-]
	 SCS Same-Spin Energy      =      -0.0108842494109622 [Eh]
	 SCS Opposite-Spin Energy  =      -0.1305060470387543 [Eh]
	 SCS Correlation Energy    =      -0.1413902964497165 [Eh]
	 SCS Total Energy          =     -75.9331114782791587 [Eh]
	-----------------------------------------------------------

  -Total Gradient:
     Atom            X                  Y                   Z
    ------   -----------------  -----------------  -----------------
       1       -0.024963136494    -0.437599435406     0.000000000000
       2        0.057288451721     0.320502666591    -0.000000000000
       3       -0.032325315228     0.117096768815    -0.000000000000

*** Psi4 exiting successfully. Buy a developer a beer!
