                               Psi4 1.2a1.dev429

  ==> Input File <==

--------------------------------------------------------------------------
# density-fitted hartree fock energies and gradients with 6-31g
molecule h2o {
0 1
O 0.0000000000 0.0000000000 0.0000000000
H 0.0000000000 0.0000000000 0.8000000000
H 0.0000000000 1.0000000000 0.0000000000
}

set basis 6-31g

gradient('mp2')
--------------------------------------------------------------------------

    Molecular point group: cs
  Charge       = 0
  Multiplicity = 1
  Basis Set: 6-31G
    Blend: 6-31G
  Basis Set: (6-31G AUX)
    Blend: CC-PVDZ-JKFIT

    Orbital Energies (a.u.)
    -----------------------

    Doubly Occupied:

       1Ap   -20.557699     2Ap    -1.421355     3Ap    -0.713992
       4Ap    -0.594518     1App   -0.512078

  @DF-RHF Final Energy:   -75.93166747801446

   => Energetics <=

    Nuclear Repulsion Energy =              9.9384077314760582
    One-Electron Energy =                -124.1408647580491618
    Two-Electron Energy =                  38.2707895485586462
    Total Energy =                        -75.9316674780144467
  Basis Set: (6-31G AUX)
    Blend: CC-PVDZ-RI
    Molecular point group: cs

    Geometry (in Angstrom), charge = 0, multiplicity = 1:

       Center              X                  Y                   Z               Mass
    ------------   -----------------  -----------------  -----------------  -----------------
           O          0.055957436636     0.044765949309     0.000000000000    15.994914619560
           H          0.055957436636    -0.755234050691     0.000000000000     1.007825032070
           H         -0.944042563364     0.044765949309     0.000000000000     1.007825032070

  Basis Set: 6-31G
    Blend: 6-31G
  Basis Set: (6-31G AUX)
    Blend: CC-PVDZ-JKFIT
  Basis Set: (6-31G AUX)
    Blend: CC-PVDZ-JKFIT
	 Reference Energy          =     -75.9316674780144609 [Eh]
	 Singles Energy            =      -0.0000000000000000 [Eh]
	 Same-Spin Energy          =      -0.0287110508237726 [Eh]
	 Opposite-Spin Energy      =      -0.0954519607284931 [Eh]
	 Correlation Energy        =      -0.1241630115522657 [Eh]
	 Total Energy              =     -76.0558304895667305 [Eh]

	 ================> DF-SCS-MP2 Energies <==================
	-----------------------------------------------------------
	 SCS Same-Spin Scale       =       0.3333333333333333 [-]
	 SCS Opposite-Spin Scale   =       1.2000000000000000 [-]
	 SCS Same-Spin Energy      =      -0.0095703502745909 [Eh]
	 SCS Opposite-Spin Energy  =      -0.1145423528741917 [Eh]
	 SCS Correlation Energy    =      -0.1241127031487826 [Eh]
	 SCS Total Energy          =     -76.0557801811632430 [Eh]
	-----------------------------------------------------------

  -Total Gradient:
     Atom            X                  Y                   Z
    ------   -----------------  -----------------  -----------------
       1        0.058281448042    -0.292463972754     0.000000000000
       2       -0.052548905235     0.334503097255    -0.000000000000
       3       -0.005732542807    -0.042039124500     0.000000000000

*** Psi4 exiting successfully. Buy a developer a beer!
