                               Psi4 1.2a1.dev429

  ==> Input File <==

--------------------------------------------------------------------------
# density-fitted hartree fock energies and gradients with 6-31g
molecule h2o {
0 1
O 0.0000000000 0.0000000000 0.0000000000
H 0.0000000000 0.0000000000 1.2000000000
H 0.0000000000 0.5130302150 -1.4095389312
}

set basis 6-31g

gradient('mp2')
--------------------------------------------------------------------------

    Molecular point group: cs
  Charge       = 0
  Multiplicity = 1
  Basis Set: 6-31G
    Blend: 6-31G
  Basis Set: (6-31G AUX)
    Blend: CC-PVDZ-JKFIT

    Orbital Energies (a.u.)
    -----------------------

    Doubly Occupied:

       1Ap   -20.537545     2Ap    -1.176814     3Ap    -0.550924
       1App   -0.435182     4Ap    -0.420366

  @DF-RHF Final Energy:   -75.77640392972357

   => Energetics <=

    Nuclear Repulsion Energy =              6.5491033633032787
    One-Electron Energy =                -118.4093512470566338
    Two-Electron Energy =                  36.0838439540297884
    Total Energy =                        -75.7764039297235712
  Basis Set: (6-31G AUX)
    Blend: CC-PVDZ-RI
    Molecular point group: cs

    Geometry (in Angstrom), charge = 0, multiplicity = 1:

       Center              X                  Y                   Z               Mass
    ------------   -----------------  -----------------  -----------------  -----------------
           O          0.028707855748    -0.011725261465     0.000000000000    15.994914619560
           H          0.028707855748    -1.211725261465     0.000000000000     1.007825032070
           H         -0.484322359252     1.397813669735     0.000000000000     1.007825032070

  Basis Set: 6-31G
    Blend: 6-31G
  Basis Set: (6-31G AUX)
    Blend: CC-PVDZ-JKFIT
  Basis Set: (6-31G AUX)
    Blend: CC-PVDZ-JKFIT
	 Reference Energy          =     -75.7764039297235712 [Eh]
	 Singles Energy            =      -0.0000000000000000 [Eh]
	 Same-Spin Energy          =      -0.0356668695596844 [Eh]
	 Opposite-Spin Energy      =      -0.1183573624099638 [Eh]
	 Correlation Energy        =      -0.1540242319696482 [Eh]
	 Total Energy              =     -75.9304281616932144 [Eh]

	 ================> DF-SCS-MP2 Energies <==================
	-----------------------------------------------------------
	 SCS Same-Spin Scale       =       0.3333333333333333 [-]
	 SCS Opposite-Spin Scale   =       1.2000000000000000 [-]
	 SCS Same-Spin Energy      =      -0.0118889565198948 [Eh]
	 SCS Opposite-Spin Energy  =      -0.1420288348919565 [Eh]
	 SCS Correlation Energy    =      -0.1539177914118513 [Eh]
	 SCS Total Energy          =     -75.9303217211354280 [Eh]
	-----------------------------------------------------------

  -Total Gradient:
     Atom            X                  Y                   Z
    ------   -----------------  -----------------  -----------------
       1       -0.048130791258    -0.009057635118     0.000000000000
       2        0.047849640838    -0.102092303586    -0.000000000000
       3        0.000281150419     0.111149938704    -0.000000000000

*** Psi4 exiting successfully. Buy a developer a beer!
