                               Psi4 1.2a1.dev429

  ==> Input File <==

--------------------------------------------------------------------------
# density-fitted MP2 energies and gradients with 6-31g

molecule h20 {
0 2
C 0.0000000000 0.0000000000 0.0000000000
H 0.0000000000 0.0000000000 1.6000000000
H 0.0000000000 0.8660254038 -0.5000000000
H 0.0000000000 -0.8660254038 -0.5000000000
}

set reference uhf
set basis 6-31g

gradient('mp2')
--------------------------------------------------------------------------

    Molecular point group: c1

    Geometry (in Angstrom), charge = 0, multiplicity = 2:

       Center              X                  Y                   Z               Mass
    ------------   -----------------  -----------------  -----------------  -----------------
           C          0.000000000000     0.000000000000    -0.040250009759    12.000000000000
           H          0.000000000000     0.000000000000     1.559749990241     1.007825032070
           H         -0.000000000000     0.866025403800    -0.540250009759     1.007825032070
           H          0.000000000000    -0.866025403800    -0.540250009759     1.007825032070

  Charge       = 0
  Multiplicity = 2
  Basis Set: 6-31G
    Blend: 6-31G
  Basis Set: (6-31G AUX)
    Blend: CC-PVDZ-JKFIT

    Orbital Energies (a.u.)
    -----------------------

    Alpha Occupied:

       1A    -11.264159     2A     -0.965174     3A     -0.623381
       4A     -0.481044     5A     -0.403647

    Alpha Virtual:

       6A      0.160424     7A      0.297559     8A      0.340182
       9A      0.711099    10A      0.729749    11A      0.779344
      12A      0.976871    13A      1.079744    14A      1.311605
      15A      1.329626

    Beta Occupied:

       1A    -11.228264     2A     -0.842423     3A     -0.594933
       4A     -0.468633

    Beta Virtual:

       5A      0.156425     6A      0.185390     7A      0.314484
       8A      0.358571     9A      0.725229    10A      0.820434
      11A      0.885110    12A      0.996989    13A      1.051642
      14A      1.336295    15A      1.349080

    Final Occupation by Irrep:
              A
    DOCC [     4 ]
    SOCC [     1 ]

  Energy converged.

  @DF-UHF Final Energy:   -39.45602133187218

   => Energetics <=

    Nuclear Repulsion Energy =              9.1059761919386002
    One-Electron Energy =                 -70.2523377645924541
    Two-Electron Energy =                  21.6903402407816692
    Total Energy =                        -39.4560213318721793

  UHF NO Occupations:
  HONO-2 :    3  A 1.9976881
  HONO-1 :    4  A 1.9104708
  HONO-0 :    5  A 1.0000000
  LUNO+0 :    6  A 0.0895292
  LUNO+1 :    7  A 0.0023119
  LUNO+2 :    8  A 0.0014413
  LUNO+3 :    9  A 0.0000005

Properties will be evaluated at   0.000000,   0.000000,   0.000000 Bohr

Properties computed using the SCF density matrix

  Nuclear Dipole Moment: (a.u.)
     X:     0.0000      Y:     0.0000      Z:     0.4493

  Electronic Dipole Moment: (a.u.)
     X:    -0.0000      Y:    -0.0000      Z:    -0.6426

  Dipole Moment: (a.u.)
     X:    -0.0000      Y:    -0.0000      Z:    -0.1933     Total:     0.1933

  Dipole Moment: (Debye)
     X:    -0.0000      Y:    -0.0000      Z:    -0.4913     Total:     0.4913

*** tstop() called on adabbott at Thu Apr 12 13:56:23 2018
Module time:
	user time   =       0.19 seconds =       0.00 minutes
	system time =       0.37 seconds =       0.01 minutes
	total time  =          1 seconds =       0.02 minutes
Total time:
	user time   =       0.19 seconds =       0.00 minutes
	system time =       0.37 seconds =       0.01 minutes
	total time  =          1 seconds =       0.02 minutes
   => Loading Basis Set <=

    Name: (6-31G AUX)
    Role: JKFIT
    Keyword: DF_BASIS_SCF
    atoms 1   entry C          line   121 file /home/adabbott/Git/psi4/objdir/stage/usr/local/psi4/share/psi4/basis/cc-pvdz-jkfit.gbs
    atoms 2-4 entry H          line    51 file /home/adabbott/Git/psi4/objdir/stage/usr/local/psi4/share/psi4/basis/cc-pvdz-jkfit.gbs

   => Loading Basis Set <=

    Name: (6-31G AUX)
    Role: RIFIT
    Keyword: DF_BASIS_CC
    atoms 1   entry C          line   159 file /home/adabbott/Git/psi4/objdir/stage/usr/local/psi4/share/psi4/basis/cc-pvdz-ri.gbs
    atoms 2-4 entry H          line    19 file /home/adabbott/Git/psi4/objdir/stage/usr/local/psi4/share/psi4/basis/cc-pvdz-ri.gbs

*** tstart() called on adabbott
*** at Thu Apr 12 13:56:23 2018

  Options:
  ----------------------------------------------------------------------------
  ACTIVE                      => [  ]
  BASIS_RELATIVISTIC          => (empty)
  BENCH                       => 0
  CC_DIIS_MAX_VECS            => 6
  CC_DIIS_MIN_VECS            => 2
  CC_LAMBDA                   => FALSE
  CC_MAXITER                  => 50
  CC_TYPE                     => CONV
  CHOLESKY                    => FALSE
  CHOLESKY_TOLERANCE          => 0.0001
  CI_TYPE                     => CONV
  COMPUT_S2                   => FALSE
  CUBEPROP_BASIS_FUNCTIONS    => [  ]
  CUBEPROP_FILEPATH           => .
  CUBEPROP_ORBITALS           => [  ]
  CUBEPROP_TASKS              => [  ]
  CUBIC_BASIS_TOLERANCE       => 1e-12
  CUBIC_BLOCK_MAX_POINTS      => 1000
  CUBIC_GRID_OVERAGE          => [  ]
  CUBIC_GRID_SPACING          => [  ]
  CUTOFF                      => 8
  DEBUG                       => 0
  DERTYPE                     => FIRST           !
  DF_BASIS_CC                 => (empty)
  DIE_IF_NOT_CONVERGED        => TRUE
  DKH_ORDER                   => 2
  DOCC                        => [  ]
  DO_DIIS                     => TRUE
  DO_LEVEL_SHIFT              => TRUE
  DO_SCS                      => FALSE           !
  DO_SOS                      => FALSE           !
  E3_SCALE                    => 0.25
  EKT_IP                      => FALSE
  EXTERNAL_POTENTIAL_SYMMETRY => FALSE
  E_CONVERGENCE               => 1e-08           !
  FREEZE_CORE                 => FALSE
  FROZEN_DOCC                 => [  ]
  FROZEN_UOCC                 => [  ]
  HESS_TYPE                   => HF
  INTEGRAL_CUTOFF             => 9
  INTEGRAL_PACKAGE            => LIBINT
  LEVEL_SHIFT                 => 0.02
  LINEQ_SOLVER                => CDGESV
  LITERAL_CFOUR               => (empty)
  MAT_NUM_COLUMN_PRINT        => 5
  MAX_MOGRAD_CONVERGENCE      => 0.001
  MOLDEN_WITH_VIRTUAL         => TRUE
  MOLDEN_WRITE                => FALSE
  MO_DIIS_NUM_VECS            => 6
  MO_MAXITER                  => 50
  MO_STEP_MAX                 => 0.5
  MP2_AMP_TYPE                => DIRECT
  MP2_OS_SCALE                => 1.2
  MP2_SOS_SCALE               => 1.3
  MP2_SOS_SCALE2              => 1.2
  MP2_SS_SCALE                => 0.333333
  MP2_TYPE                    => DF
  MP_TYPE                     => CONV
  NAT_ORBS                    => FALSE
  NUM_FROZEN_DOCC             => 0
  NUM_FROZEN_UOCC             => 0
  OCC_ORBS_PRINT              => FALSE
  OEPROP                      => FALSE
  OO_SCALE                    => 0.01
  OPT_METHOD                  => QNR
  ORB_OPT                     => FALSE           !
  ORB_RESP_SOLVER             => PCG
  ORTH_TYPE                   => MGS
  PCG_BETA_TYPE               => FLETCHER_REEVES
  PCG_CONVERGENCE             => 1e-06
  PCG_MAXITER                 => 50
  PCM                         => FALSE
  PCM_CC_TYPE                 => PTE
  PCM_SCF_TYPE                => TOTAL
  PPL_TYPE                    => AUTO
  PRINT                       => 1
  PRINT_NOONS                 => 3
  PROPERTIES                  => [  ]
  PROPERTIES_ORIGIN           => [  ]
  PUREAM                      => TRUE
  QCHF                        => FALSE
  QC_MODULE                   => (empty)
  RAS1                        => [  ]
  RAS2                        => [  ]
  RAS3                        => [  ]
  RAS4                        => [  ]
  READ_SCF_3INDEX             => TRUE
  REGULARIZATION              => FALSE
  REG_PARAM                   => 0.4
  RELATIVISTIC                => NO
  RESTRICTED_DOCC             => [  ]
  RESTRICTED_UOCC             => [  ]
  RMS_MOGRAD_CONVERGENCE      => 1e-06
  R_CONVERGENCE               => 1e-05
  SCS_TYPE                    => SCS
  SOCC                        => [  ]
  SOS_TYPE                    => SOS
  TRIPLES_IABC_TYPE           => DISK
  UNITS                       => ANGSTROMS
  WFN                         => SCF
  WFN_TYPE                    => DF-OMP2         !
  WRITER_FILE_LABEL           => (empty)

 ==============================================================================
 ==============================================================================
 ==============================================================================

                       DF-MP2
              Program Written by Ugur Bozkaya
              Latest Revision April 17, 2016

 ==============================================================================
 ==============================================================================
 ==============================================================================

	MO Hessian type is changed to 'APPROX_DIAG'
	MO spaces...

	 FC   AOCC   BOCC  AVIR   BVIR   FV
	------------------------------------------
	  0     5     4    10     11     0
	Reading DF integrals from disk ...
	Number of basis functions in the DF-HF basis: 156
	Number of basis functions in the DF-CC basis:  98

	Available memory                      :    500.00 MB
	Minimum required memory for amplitudes:      0.06 MB

	Computing DF-MP2 energy using SCF MOs (Canonical DF-MP2)...
	=======================================================================
	Nuclear Repulsion Energy (a.u.)    :     9.10597619193860
	DF-HF Energy (a.u.)                :   -39.45602133187218
	REF Energy (a.u.)                  :   -39.45602133187218
	Alpha-Alpha Contribution (a.u.)    :    -0.00982549777726
	Alpha-Beta Contribution (a.u.)     :    -0.06111233022944
	Beta-Beta Contribution (a.u.)      :    -0.00301791334177
	Scaled_SS Correlation Energy (a.u.):    -0.00428113703968
	Scaled_OS Correlation Energy (a.u.):    -0.07333479627533
	DF-SCS-MP2 Total Energy (a.u.)     :   -39.53363726518719
	DF-SOS-MP2 Total Energy (a.u.)     :   -39.53546736117045
	DF-SCSN-MP2 Total Energy (a.u.)    :   -39.47862573544168
	DF-MP2 Correlation Energy (a.u.)   :    -0.07395574134847
	DF-MP2 Total Energy (a.u.)         :   -39.52997707322065
	=======================================================================

	Computing unrelaxed response density matrices...

	Forming independent-pairs...
	Number of alpha independent-pairs: 50
	Number of beta independent-pairs : 44
	Computing the generalized Fock matrix (GFM)...
	Computing the orbital gradient...
	Forming effective orbital gradient...
	Solving orbital Z-vector equations...

	            PCG Solver
	   ------------------------------
	Iter     RMS Z Vector        RMS Residual
	----    ---------------    ---------------
	  1         1.59e-02         4.32e-03
	  2         3.57e-03         1.77e-03
	  3         1.01e-03         3.59e-04
	  4         2.39e-04         8.22e-05
	  5         6.20e-05         2.63e-05
	  6         1.34e-05         4.61e-06
	  7         2.79e-06         9.28e-07
	  8         3.05e-07         1.93e-07

	Computing the relaxed PDMs and GFM...

*** tstop() called on adabbott at Thu Apr 12 13:56:23 2018
Module time:
	user time   =       0.10 seconds =       0.00 minutes
	system time =       0.38 seconds =       0.01 minutes
	total time  =          0 seconds =       0.00 minutes
Total time:
	user time   =       0.42 seconds =       0.01 minutes
	system time =       0.99 seconds =       0.02 minutes
	total time  =          1 seconds =       0.02 minutes

*** tstart() called on adabbott
*** at Thu Apr 12 13:56:23 2018

 ==============================================================================
 ==============================================================================
 ==============================================================================

                         DFGRAD
            A General Analytic Gradients Code
               for Density-Fitted Methods
                   by Ugur Bozkaya
              Latest Revision October 7, 2015

 ==============================================================================
 ==============================================================================
 ==============================================================================

	Analytic gradients computation is starting...
	Forming Gamma^tilde...
	Backtransforming OPDM, TPDM, and GFM to the AO basis...
	Computing analytic gradients...

  -Nuclear Gradient:
     Atom            X                  Y                   Z
    ------   -----------------  -----------------  -----------------
       1        0.000000000000     0.000000000000    -1.023854269203
       2        0.000000000000     0.000000000000    -0.756657510081
       3        0.000000000000    -1.569103599641     0.890255889642
       4       -0.000000000000     1.569103599641     0.890255889642

  -Kinetic Gradient:
     Atom            X                  Y                   Z
    ------   -----------------  -----------------  -----------------
       1       -0.000000000000    -0.000000000001    -0.320657515775
       2        0.000000000000     0.000000000000    -0.167098030996
       3        0.000000000000    -0.393653679164     0.243877773385
       4       -0.000000000000     0.393653679164     0.243877773386

  -Potential Gradient:
     Atom            X                  Y                   Z
    ------   -----------------  -----------------  -----------------
       1        0.000000000000     0.000000000007     1.877790102017
       2       -0.000000000000    -0.000000000000     2.704009728905
       3       -0.000000000000     3.692731824304    -2.290899915456
       4        0.000000000000    -3.692731824311    -2.290899915466

  -Overlap Gradient:
     Atom            X                  Y                   Z
    ------   -----------------  -----------------  -----------------
       1       -0.000000000000    -0.000000000001    -0.110902434696
       2        0.000000000000     0.000000000000    -0.151077416027
       3        0.000000000000    -0.184963449969     0.130989925361
       4       -0.000000000000     0.184963449970     0.130989925362

  -One-Electron Gradient:
     Atom            X                  Y                   Z
    ------   -----------------  -----------------  -----------------
       1        0.000000000000     0.000000000006     1.557132586242
       2       -0.000000000000    -0.000000000000     2.536911697908
       3       -0.000000000000     3.299078145140    -2.047022142071
       4        0.000000000000    -3.299078145146    -2.047022142080

  -Two-Electron Gradient:
     Atom            X                  Y                   Z
    ------   -----------------  -----------------  -----------------
       1       -0.000000000000    -0.000000000005    -0.594810657943
       2        0.000000000000     0.000000000000    -1.512572164387
       3        0.000000000000    -1.618819307690     1.053691411161
       4       -0.000000000000     1.618819307695     1.053691411169

  -Total Gradient:
     Atom            X                  Y                   Z
    ------   -----------------  -----------------  -----------------
       1       -0.000000000000     0.000000000000    -0.172434775600
       2       -0.000000000000    -0.000000000000     0.116604607414
       3       -0.000000000000    -0.073808212160     0.027915084093
       4        0.000000000000     0.073808212160     0.027915084093

*** tstop() called on adabbott at Thu Apr 12 13:56:23 2018
Module time:
	user time   =       0.13 seconds =       0.00 minutes
	system time =       0.55 seconds =       0.01 minutes
	total time  =          0 seconds =       0.00 minutes
Total time:
	user time   =       0.55 seconds =       0.01 minutes
	system time =       1.54 seconds =       0.03 minutes
	total time  =          1 seconds =       0.02 minutes

*** Psi4 exiting successfully. Buy a developer a beer!
