                               Psi4 1.3.1 release

  ==> Input File <==

--------------------------------------------------------------------------
# density fitted MP2
molecule h2o {
0 1
H 0.0000000000 0.0000000000 0.8500000000
H 0.0000000000 0.8500000000 0.0000000000
O 0.0000000000 0.0000000000 0.0000000000
}

set basis 6-31g
energy('mp2')

--------------------------------------------------------------------------

    Molecular point group: c2v

    Geometry (in Angstrom), charge = 0, multiplicity = 1:

       Center              X                  Y                   Z               Mass
    ------------   -----------------  -----------------  -----------------  -----------------
         H            0.000000000000    -0.601040764009     0.533775363064     1.007825032230
         H           -0.000000000000     0.601040764009     0.533775363064     1.007825032230
         O           -0.000000000000     0.000000000000    -0.067265400945    15.994914619570

  Charge       = 0
  Multiplicity = 1
  Basis Set: 6-31G
    Blend: 6-31G
  Basis Set: (6-31G AUX)
    Blend: CC-PVDZ-JKFIT

    Orbital Energies [Eh]
    ---------------------

    Doubly Occupied:

       1A1   -20.547056     2A1    -1.444825     1B2    -0.738778
       3A1    -0.605571     1B1    -0.514131

  @DF-RHF Final Energy:   -75.93812240634244

   => Energetics <=

    Nuclear Repulsion Energy =             10.4012001939225183
    One-Electron Energy =                -124.9779212700375410
    Two-Electron Energy =                  38.6385986697725912
    Total Energy =                        -75.9381224063424298

  Dipole Moment: [D]
     X:    -0.0000      Y:     0.0000      Z:     2.7954     Total:     2.7954

  Basis Set: (6-31G AUX)
    Blend: CC-PVDZ-RI
	 Reference Energy          =     -75.9381224063424440 [Eh]
	 Singles Energy            =      -0.0000000000000000 [Eh]
	 Same-Spin Energy          =      -0.0277202185419175 [Eh]
	 Opposite-Spin Energy      =      -0.0919994716794230 [Eh]
	 Correlation Energy        =      -0.1197196902213406 [Eh]
	 Total Energy              =     -76.0578420965637889 [Eh]

	 ================> DF-SCS-MP2 Energies <==================
	-----------------------------------------------------------
	 SCS Same-Spin Scale       =       0.3333333333333333 [-]
	 SCS Opposite-Spin Scale   =       1.2000000000000000 [-]
	 SCS Same-Spin Energy      =      -0.0092400728473058 [Eh]
	 SCS Opposite-Spin Energy  =      -0.1103993660153076 [Eh]
	 SCS Correlation Energy    =      -0.1196394388626135 [Eh]
	 SCS Total Energy          =     -76.0577618452050643 [Eh]
	-----------------------------------------------------------

*** Psi4 exiting successfully. Buy a developer a beer!
