                               Psi4 1.2a1.dev429

  ==> Input File <==

--------------------------------------------------------------------------
# density-fitted hartree fock energies and gradients with 6-31g
molecule o2 {
0 3
O 0.0000000000 0.0000000000 0.0000000000
O 0.0000000000 0.0000000000 1.2285714286
}

set basis 6-31g
set reference rohf

energy('scf')
--------------------------------------------------------------------------

    Molecular point group: d2h

    Geometry (in Angstrom), charge = 0, multiplicity = 3:

       Center              X                  Y                   Z               Mass
    ------------   -----------------  -----------------  -----------------  -----------------
           O          0.000000000000     0.000000000000    -0.614285714300    15.994914619560
           O          0.000000000000     0.000000000000     0.614285714300    15.994914619560

  Charge       = 0
  Multiplicity = 3
  Basis Set: 6-31G
    Blend: 6-31G
  Basis Set: (6-31G AUX)
    Blend: CC-PVDZ-JKFIT

    Orbital Energies (a.u.)
    -----------------------

    Doubly Occupied:

       1Ag   -20.752243     1B1u  -20.751476     2Ag    -1.670044
       2B1u   -1.108879     3Ag    -0.717624     1B2u   -0.707415
       1B3u   -0.707415

    Singly Occupied:

       1B3g   -0.237521     1B2g   -0.237521

  @DF-ROHF Final Energy:  -149.52583766947154

   => Energetics <=

    Nuclear Repulsion Energy =             27.5664406328845004
    One-Electron Energy =                -260.2344490049588330
    Two-Electron Energy =                  83.1421707026027832
    Total Energy =                       -149.5258376694715423
*** Psi4 exiting successfully. Buy a developer a beer!
