                               Psi4 1.2a1.dev429

  ==> Input File <==

--------------------------------------------------------------------------
# density-fitted MP2 energies and gradients with 6-31g

molecule h20 {
0 2
C 0.0000000000 0.0000000000 0.0000000000
H 0.0000000000 0.0000000000 1.1000000000
H 0.0000000000 0.8660254038 -0.5000000000
H 0.0000000000 -0.8660254038 -0.5000000000
}

set reference uhf
set basis 6-31g

gradient('mp2')
--------------------------------------------------------------------------

    Molecular point group: c1

    Geometry (in Angstrom), charge = 0, multiplicity = 2:

       Center              X                  Y                   Z               Mass
    ------------   -----------------  -----------------  -----------------  -----------------
           C          0.000000000000     0.000000000000    -0.006708334960    12.000000000000
           H          0.000000000000     0.000000000000     1.093291665040     1.007825032070
           H         -0.000000000000     0.866025403800    -0.506708334960     1.007825032070
           H          0.000000000000    -0.866025403800    -0.506708334960     1.007825032070

  Charge       = 0
  Multiplicity = 2
  Basis Set: 6-31G
    Blend: 6-31G
  Basis Set: (6-31G AUX)
    Blend: CC-PVDZ-JKFIT

    Orbital Energies (a.u.)
    -----------------------

    Alpha Occupied:

       1A    -11.216724     2A     -0.967161     3A     -0.605516
       4A     -0.579284     5A     -0.383616

    Alpha Virtual:

       6A      0.265610     7A      0.332354     8A      0.346609
       9A      0.716077    10A      0.747488    11A      0.748278
      12A      0.937786    13A      1.219520    14A      1.327796
      15A      1.349116

    Beta Occupied:

       1A    -11.192109     2A     -0.869880     3A     -0.587118
       4A     -0.561609

    Beta Virtual:

       5A      0.152974     6A      0.288744     7A      0.341150
       8A      0.354782     9A      0.727265    10A      0.760795
      11A      0.894384    12A      0.975893    13A      1.233828
      14A      1.346831    15A      1.356936

    Final Occupation by Irrep:
              A
    DOCC [     4 ]
    SOCC [     1 ]

  Energy converged.

  @DF-UHF Final Energy:   -39.53752209350248

   => Energetics <=

    Nuclear Repulsion Energy =             10.1237924429840440
    One-Electron Energy =                 -72.3596130708317560
    Two-Electron Energy =                  22.6982985343452341
    Total Energy =                        -39.5375220935024814

  UHF NO Occupations:
  HONO-2 :    3  A 1.9988681
  HONO-1 :    4  A 1.9969919
  HONO-0 :    5  A 1.0000000
  LUNO+0 :    6  A 0.0030081
  LUNO+1 :    7  A 0.0011319
  LUNO+2 :    8  A 0.0008135
  LUNO+3 :    9  A 0.0000003

Properties will be evaluated at   0.000000,   0.000000,   0.000000 Bohr

Properties computed using the SCF density matrix

  Nuclear Dipole Moment: (a.u.)
     X:     0.0000      Y:     0.0000      Z:     0.0749

  Electronic Dipole Moment: (a.u.)
     X:     0.0000      Y:     0.0000      Z:    -0.0918

  Dipole Moment: (a.u.)
     X:     0.0000      Y:     0.0000      Z:    -0.0169     Total:     0.0169

  Dipole Moment: (Debye)
     X:     0.0000      Y:     0.0000      Z:    -0.0431     Total:     0.0431

*** tstop() called on adabbott at Thu Apr 12 13:56:19 2018
Module time:
	user time   =       0.16 seconds =       0.00 minutes
	system time =       0.27 seconds =       0.00 minutes
	total time  =          0 seconds =       0.00 minutes
Total time:
	user time   =       0.16 seconds =       0.00 minutes
	system time =       0.27 seconds =       0.00 minutes
	total time  =          0 seconds =       0.00 minutes
   => Loading Basis Set <=

    Name: (6-31G AUX)
    Role: JKFIT
    Keyword: DF_BASIS_SCF
    atoms 1   entry C          line   121 file /home/adabbott/Git/psi4/objdir/stage/usr/local/psi4/share/psi4/basis/cc-pvdz-jkfit.gbs
    atoms 2-4 entry H          line    51 file /home/adabbott/Git/psi4/objdir/stage/usr/local/psi4/share/psi4/basis/cc-pvdz-jkfit.gbs

   => Loading Basis Set <=

    Name: (6-31G AUX)
    Role: RIFIT
    Keyword: DF_BASIS_CC
    atoms 1   entry C          line   159 file /home/adabbott/Git/psi4/objdir/stage/usr/local/psi4/share/psi4/basis/cc-pvdz-ri.gbs
    atoms 2-4 entry H          line    19 file /home/adabbott/Git/psi4/objdir/stage/usr/local/psi4/share/psi4/basis/cc-pvdz-ri.gbs

*** tstart() called on adabbott
*** at Thu Apr 12 13:56:19 2018

  Options:
  ----------------------------------------------------------------------------
  ACTIVE                      => [  ]
  BASIS_RELATIVISTIC          => (empty)
  BENCH                       => 0
  CC_DIIS_MAX_VECS            => 6
  CC_DIIS_MIN_VECS            => 2
  CC_LAMBDA                   => FALSE
  CC_MAXITER                  => 50
  CC_TYPE                     => CONV
  CHOLESKY                    => FALSE
  CHOLESKY_TOLERANCE          => 0.0001
  CI_TYPE                     => CONV
  COMPUT_S2                   => FALSE
  CUBEPROP_BASIS_FUNCTIONS    => [  ]
  CUBEPROP_FILEPATH           => .
  CUBEPROP_ORBITALS           => [  ]
  CUBEPROP_TASKS              => [  ]
  CUBIC_BASIS_TOLERANCE       => 1e-12
  CUBIC_BLOCK_MAX_POINTS      => 1000
  CUBIC_GRID_OVERAGE          => [  ]
  CUBIC_GRID_SPACING          => [  ]
  CUTOFF                      => 8
  DEBUG                       => 0
  DERTYPE                     => FIRST           !
  DF_BASIS_CC                 => (empty)
  DIE_IF_NOT_CONVERGED        => TRUE
  DKH_ORDER                   => 2
  DOCC                        => [  ]
  DO_DIIS                     => TRUE
  DO_LEVEL_SHIFT              => TRUE
  DO_SCS                      => FALSE           !
  DO_SOS                      => FALSE           !
  E3_SCALE                    => 0.25
  EKT_IP                      => FALSE
  EXTERNAL_POTENTIAL_SYMMETRY => FALSE
  E_CONVERGENCE               => 1e-08           !
  FREEZE_CORE                 => FALSE
  FROZEN_DOCC                 => [  ]
  FROZEN_UOCC                 => [  ]
  HESS_TYPE                   => HF
  INTEGRAL_CUTOFF             => 9
  INTEGRAL_PACKAGE            => LIBINT
  LEVEL_SHIFT                 => 0.02
  LINEQ_SOLVER                => CDGESV
  LITERAL_CFOUR               => (empty)
  MAT_NUM_COLUMN_PRINT        => 5
  MAX_MOGRAD_CONVERGENCE      => 0.001
  MOLDEN_WITH_VIRTUAL         => TRUE
  MOLDEN_WRITE                => FALSE
  MO_DIIS_NUM_VECS            => 6
  MO_MAXITER                  => 50
  MO_STEP_MAX                 => 0.5
  MP2_AMP_TYPE                => DIRECT
  MP2_OS_SCALE                => 1.2
  MP2_SOS_SCALE               => 1.3
  MP2_SOS_SCALE2              => 1.2
  MP2_SS_SCALE                => 0.333333
  MP2_TYPE                    => DF
  MP_TYPE                     => CONV
  NAT_ORBS                    => FALSE
  NUM_FROZEN_DOCC             => 0
  NUM_FROZEN_UOCC             => 0
  OCC_ORBS_PRINT              => FALSE
  OEPROP                      => FALSE
  OO_SCALE                    => 0.01
  OPT_METHOD                  => QNR
  ORB_OPT                     => FALSE           !
  ORB_RESP_SOLVER             => PCG
  ORTH_TYPE                   => MGS
  PCG_BETA_TYPE               => FLETCHER_REEVES
  PCG_CONVERGENCE             => 1e-06
  PCG_MAXITER                 => 50
  PCM                         => FALSE
  PCM_CC_TYPE                 => PTE
  PCM_SCF_TYPE                => TOTAL
  PPL_TYPE                    => AUTO
  PRINT                       => 1
  PRINT_NOONS                 => 3
  PROPERTIES                  => [  ]
  PROPERTIES_ORIGIN           => [  ]
  PUREAM                      => TRUE
  QCHF                        => FALSE
  QC_MODULE                   => (empty)
  RAS1                        => [  ]
  RAS2                        => [  ]
  RAS3                        => [  ]
  RAS4                        => [  ]
  READ_SCF_3INDEX             => TRUE
  REGULARIZATION              => FALSE
  REG_PARAM                   => 0.4
  RELATIVISTIC                => NO
  RESTRICTED_DOCC             => [  ]
  RESTRICTED_UOCC             => [  ]
  RMS_MOGRAD_CONVERGENCE      => 1e-06
  R_CONVERGENCE               => 1e-05
  SCS_TYPE                    => SCS
  SOCC                        => [  ]
  SOS_TYPE                    => SOS
  TRIPLES_IABC_TYPE           => DISK
  UNITS                       => ANGSTROMS
  WFN                         => SCF
  WFN_TYPE                    => DF-OMP2         !
  WRITER_FILE_LABEL           => (empty)

 ==============================================================================
 ==============================================================================
 ==============================================================================

                       DF-MP2
              Program Written by Ugur Bozkaya
              Latest Revision April 17, 2016

 ==============================================================================
 ==============================================================================
 ==============================================================================

	MO Hessian type is changed to 'APPROX_DIAG'
	MO spaces...

	 FC   AOCC   BOCC  AVIR   BVIR   FV
	------------------------------------------
	  0     5     4    10     11     0
	Reading DF integrals from disk ...
	Number of basis functions in the DF-HF basis: 156
	Number of basis functions in the DF-CC basis:  98

	Available memory                      :    500.00 MB
	Minimum required memory for amplitudes:      0.06 MB

	Computing DF-MP2 energy using SCF MOs (Canonical DF-MP2)...
	=======================================================================
	Nuclear Repulsion Energy (a.u.)    :    10.12379244298404
	DF-HF Energy (a.u.)                :   -39.53752209350248
	REF Energy (a.u.)                  :   -39.53752209350248
	Alpha-Alpha Contribution (a.u.)    :    -0.00893950057971
	Alpha-Beta Contribution (a.u.)     :    -0.06166628167485
	Beta-Beta Contribution (a.u.)      :    -0.00373561291782
	Scaled_SS Correlation Energy (a.u.):    -0.00422503783251
	Scaled_OS Correlation Energy (a.u.):    -0.07399953800982
	DF-SCS-MP2 Total Energy (a.u.)     :   -39.61574666934480
	DF-SOS-MP2 Total Energy (a.u.)     :   -39.61768825967978
	DF-SCSN-MP2 Total Energy (a.u.)    :   -39.55983029325813
	DF-MP2 Correlation Energy (a.u.)   :    -0.07434139517238
	DF-MP2 Total Energy (a.u.)         :   -39.61186348867486
	=======================================================================

	Computing unrelaxed response density matrices...

	Forming independent-pairs...
	Number of alpha independent-pairs: 50
	Number of beta independent-pairs : 44
	Computing the generalized Fock matrix (GFM)...
	Computing the orbital gradient...
	Forming effective orbital gradient...
	Solving orbital Z-vector equations...

	            PCG Solver
	   ------------------------------
	Iter     RMS Z Vector        RMS Residual
	----    ---------------    ---------------
	  1         8.28e-04         4.16e-04
	  2         2.72e-04         1.73e-04
	  3         6.48e-05         3.12e-05
	  4         1.71e-05         7.78e-06
	  5         4.82e-06         2.57e-06
	  6         1.11e-06         6.90e-07
	  7         1.71e-07         7.26e-08

	Computing the relaxed PDMs and GFM...

*** tstop() called on adabbott at Thu Apr 12 13:56:19 2018
Module time:
	user time   =       0.14 seconds =       0.00 minutes
	system time =       0.53 seconds =       0.01 minutes
	total time  =          0 seconds =       0.00 minutes
Total time:
	user time   =       0.42 seconds =       0.01 minutes
	system time =       1.04 seconds =       0.02 minutes
	total time  =          0 seconds =       0.00 minutes

*** tstart() called on adabbott
*** at Thu Apr 12 13:56:19 2018

 ==============================================================================
 ==============================================================================
 ==============================================================================

                         DFGRAD
            A General Analytic Gradients Code
               for Density-Fitted Methods
                   by Ugur Bozkaya
              Latest Revision October 7, 2015

 ==============================================================================
 ==============================================================================
 ==============================================================================

	Analytic gradients computation is starting...
	Forming Gamma^tilde...
	Backtransforming OPDM, TPDM, and GFM to the AO basis...
	Computing analytic gradients...

  -Nuclear Gradient:
     Atom            X                  Y                   Z
    ------   -----------------  -----------------  -----------------
       1        0.000000000000     0.000000000000    -0.291599944391
       2        0.000000000000     0.000000000000    -1.537373671630
       3        0.000000000000    -1.588684561934     0.914486808010
       4       -0.000000000000     1.588684561934     0.914486808010

  -Kinetic Gradient:
     Atom            X                  Y                   Z
    ------   -----------------  -----------------  -----------------
       1       -0.000000000000     0.000000000001    -0.076714818545
       2        0.000000000000    -0.000000000000    -0.383534223761
       3       -0.000000000000    -0.394266863941     0.230124521153
       4        0.000000000000     0.394266863940     0.230124521153

  -Potential Gradient:
     Atom            X                  Y                   Z
    ------   -----------------  -----------------  -----------------
       1        0.000000000000    -0.000000000008     0.405407951680
       2       -0.000000000000     0.000000000001     3.995105631794
       3        0.000000000000     3.771925808631    -2.200256791739
       4       -0.000000000000    -3.771925808624    -2.200256791735

  -Overlap Gradient:
     Atom            X                  Y                   Z
    ------   -----------------  -----------------  -----------------
       1        0.000000000000     0.000000000001    -0.018487492353
       2        0.000000000000    -0.000000000000    -0.198859487144
       3       -0.000000000000    -0.182369833024     0.108673489749
       4        0.000000000000     0.182369833023     0.108673489748

  -One-Electron Gradient:
     Atom            X                  Y                   Z
    ------   -----------------  -----------------  -----------------
       1        0.000000000000    -0.000000000007     0.328693133135
       2       -0.000000000000     0.000000000001     3.611571408033
       3        0.000000000000     3.377658944690    -1.970132270586
       4       -0.000000000000    -3.377658944684    -1.970132270582

  -Two-Electron Gradient:
     Atom            X                  Y                   Z
    ------   -----------------  -----------------  -----------------
       1       -0.000000000000     0.000000000006    -0.104037416632
       2        0.000000000000    -0.000000000001    -1.863346347199
       3       -0.000000000000    -1.674542038897     0.983691881918
       4        0.000000000000     1.674542038892     0.983691881914

  -Total Gradient:
     Atom            X                  Y                   Z
    ------   -----------------  -----------------  -----------------
       1        0.000000000000    -0.000000000000    -0.085431720241
       2       -0.000000000000     0.000000000000     0.011991902060
       3        0.000000000000    -0.067937489165     0.036719909090
       4       -0.000000000000     0.067937489165     0.036719909090

*** tstop() called on adabbott at Thu Apr 12 13:56:19 2018
Module time:
	user time   =       0.14 seconds =       0.00 minutes
	system time =       0.46 seconds =       0.01 minutes
	total time  =          0 seconds =       0.00 minutes
Total time:
	user time   =       0.56 seconds =       0.01 minutes
	system time =       1.50 seconds =       0.03 minutes
	total time  =          0 seconds =       0.00 minutes

*** Psi4 exiting successfully. Buy a developer a beer!
