                               Psi4 1.2a1.dev429

  ==> Input File <==

--------------------------------------------------------------------------
# density-fitted hartree fock energies and gradients with 6-31g
molecule h2o {
0 1
O 0.0000000000 0.0000000000 0.0000000000
H 0.0000000000 0.0000000000 0.8000000000
H 0.0000000000 0.0000000000 -0.8000000000
}

set basis 6-31g

gradient('mp2')
--------------------------------------------------------------------------

    Molecular point group: d2h
  Charge       = 0
  Multiplicity = 1
  Basis Set: 6-31G
    Blend: 6-31G
  Basis Set: (6-31G AUX)
    Blend: CC-PVDZ-JKFIT

    Orbital Energies (a.u.)
    -----------------------

    Doubly Occupied:

       1Ag   -20.496395     2Ag    -1.388243     1B1u   -0.900457
       1B3u   -0.496805     1B2u   -0.496805

  @DF-RHF Final Energy:   -75.89272893026531

   => Energetics <=

    Nuclear Repulsion Energy =             10.9142799271687494
    One-Electron Energy =                -126.0566082932153478
    Two-Electron Energy =                  39.2495994357812918
    Total Energy =                        -75.8927289302653065
  Basis Set: (6-31G AUX)
    Blend: CC-PVDZ-RI
    Molecular point group: d2h

    Geometry (in Angstrom), charge = 0, multiplicity = 1:

       Center              X                  Y                   Z               Mass
    ------------   -----------------  -----------------  -----------------  -----------------
           O          0.000000000000     0.000000000000     0.000000000000    15.994914619560
           H          0.000000000000     0.000000000000     0.800000000000     1.007825032070
           H          0.000000000000     0.000000000000    -0.800000000000     1.007825032070

  Basis Set: 6-31G
    Blend: 6-31G
  Basis Set: (6-31G AUX)
    Blend: CC-PVDZ-JKFIT
  Basis Set: (6-31G AUX)
    Blend: CC-PVDZ-JKFIT
	 Reference Energy          =     -75.8927289302653065 [Eh]
	 Singles Energy            =      -0.0000000000000000 [Eh]
	 Same-Spin Energy          =      -0.0272610822497905 [Eh]
	 Opposite-Spin Energy      =      -0.0866259636283168 [Eh]
	 Correlation Energy        =      -0.1138870458781073 [Eh]
	 Total Energy              =     -76.0066159761434079 [Eh]

	 ================> DF-SCS-MP2 Energies <==================
	-----------------------------------------------------------
	 SCS Same-Spin Scale       =       0.3333333333333333 [-]
	 SCS Opposite-Spin Scale   =       1.2000000000000000 [-]
	 SCS Same-Spin Energy      =      -0.0090870274165968 [Eh]
	 SCS Opposite-Spin Energy  =      -0.1039511563539802 [Eh]
	 SCS Correlation Energy    =      -0.1130381837705770 [Eh]
	 SCS Total Energy          =     -76.0057671140358906 [Eh]
	-----------------------------------------------------------

  -Total Gradient:
     Atom            X                  Y                   Z
    ------   -----------------  -----------------  -----------------
       1       -0.000000000000     0.000000000000     0.000000000028
       2        0.000000000000    -0.000000000000    -0.276973375437
       3        0.000000000000     0.000000000000     0.276973375408

*** Psi4 exiting successfully. Buy a developer a beer!
