                               Psi4 1.3.1 release

  ==> Input File <==

--------------------------------------------------------------------------
# density fitted MP2
molecule h2o {
0 1
H 0.0000000000 0.0000000000 0.8500000000
H 0.0000000000 0.7852976026 -0.3252809175
O 0.0000000000 0.0000000000 0.0000000000
}

set basis 6-31g
energy('mp2')

--------------------------------------------------------------------------

    Molecular point group: c2v

    Geometry (in Angstrom), charge = 0, multiplicity = 1:

       Center              X                  Y                   Z               Mass
    ------------   -----------------  -----------------  -----------------  -----------------
         H            0.000000000000    -0.706749170443     0.419384611660     1.007825032230
         H           -0.000000000000     0.706749170443     0.419384611660     1.007825032230
         O           -0.000000000000     0.000000000000    -0.052850086395    15.994914619570

  Charge       = 0
  Multiplicity = 1
  Basis Set: 6-31G
    Blend: 6-31G
  Basis Set: (6-31G AUX)
    Blend: CC-PVDZ-JKFIT

    Orbital Energies [Eh]
    ---------------------

    Doubly Occupied:

       1A1   -20.534154     2A1    -1.411857     1B2    -0.792417
       3A1    -0.561220     1B1    -0.506152

  @DF-RHF Final Energy:   -75.95908027103316

   => Energetics <=

    Nuclear Repulsion Energy =             10.3353569186165615
    One-Electron Energy =                -124.9772772421821827
    Two-Electron Energy =                  38.6828400525324554
    Total Energy =                        -75.9590802710331587

  Dipole Moment: [D]
     X:    -0.0000      Y:     0.0000      Z:     2.4281     Total:     2.4281

  Basis Set: (6-31G AUX)
    Blend: CC-PVDZ-RI
	 Reference Energy          =     -75.9590802710331587 [Eh]
	 Singles Energy            =      -0.0000000000000000 [Eh]
	 Same-Spin Energy          =      -0.0280042199446931 [Eh]
	 Opposite-Spin Energy      =      -0.0908483163313446 [Eh]
	 Correlation Energy        =      -0.1188525362760377 [Eh]
	 Total Energy              =     -76.0779328073091961 [Eh]

	 ================> DF-SCS-MP2 Energies <==================
	-----------------------------------------------------------
	 SCS Same-Spin Scale       =       0.3333333333333333 [-]
	 SCS Opposite-Spin Scale   =       1.2000000000000000 [-]
	 SCS Same-Spin Energy      =      -0.0093347399815644 [Eh]
	 SCS Opposite-Spin Energy  =      -0.1090179795976135 [Eh]
	 SCS Correlation Energy    =      -0.1183527195791779 [Eh]
	 SCS Total Energy          =     -76.0774329906123370 [Eh]
	-----------------------------------------------------------

*** Psi4 exiting successfully. Buy a developer a beer!
