                               Psi4 1.2a1.dev429

  ==> Input File <==

--------------------------------------------------------------------------
# density-fitted hartree fock energies and gradients with 6-31g
molecule h2o {
0 1
O 0.0000000000 0.0000000000 0.0000000000
H 0.0000000000 0.0000000000 1.5000000000
H 0.0000000000 0.6928203230 -0.4000000000
}

set basis 6-31g

gradient('mp2')
--------------------------------------------------------------------------

    Molecular point group: cs
  Charge       = 0
  Multiplicity = 1
  Basis Set: 6-31G
    Blend: 6-31G
  Basis Set: (6-31G AUX)
    Blend: CC-PVDZ-JKFIT

    Orbital Energies (a.u.)
    -----------------------

    Doubly Occupied:

       1Ap   -20.565210     2Ap    -1.342952     3Ap    -0.665834
       1App   -0.490066     4Ap    -0.479840

  @DF-RHF Final Energy:   -75.82722115319787

   => Energetics <=

    Nuclear Repulsion Energy =              8.3757118212143915
    One-Electron Energy =                -121.3180623776135434
    Two-Electron Energy =                  37.1151294032012800
    Total Energy =                        -75.8272211531978684
  Basis Set: (6-31G AUX)
    Blend: CC-PVDZ-RI
    Molecular point group: cs

    Geometry (in Angstrom), charge = 0, multiplicity = 1:

       Center              X                  Y                   Z               Mass
    ------------   -----------------  -----------------  -----------------  -----------------
           O          0.038768449325     0.061553180300     0.000000000000    15.994914619560
           H          0.038768449325    -1.438446819700     0.000000000000     1.007825032070
           H         -0.654051873675     0.461553180300     0.000000000000     1.007825032070

  Basis Set: 6-31G
    Blend: 6-31G
  Basis Set: (6-31G AUX)
    Blend: CC-PVDZ-JKFIT
  Basis Set: (6-31G AUX)
    Blend: CC-PVDZ-JKFIT
	 Reference Energy          =     -75.8272211531978684 [Eh]
	 Singles Energy            =      -0.0000000000000000 [Eh]
	 Same-Spin Energy          =      -0.0320338058424946 [Eh]
	 Opposite-Spin Energy      =      -0.1111000205684764 [Eh]
	 Correlation Energy        =      -0.1431338264109710 [Eh]
	 Total Energy              =     -75.9703549796088424 [Eh]

	 ================> DF-SCS-MP2 Energies <==================
	-----------------------------------------------------------
	 SCS Same-Spin Scale       =       0.3333333333333333 [-]
	 SCS Opposite-Spin Scale   =       1.2000000000000000 [-]
	 SCS Same-Spin Energy      =      -0.0106779352808315 [Eh]
	 SCS Opposite-Spin Energy  =      -0.1333200246821717 [Eh]
	 SCS Correlation Energy    =      -0.1439979599630032 [Eh]
	 SCS Total Energy          =     -75.9712191131608705 [Eh]
	-----------------------------------------------------------

  -Total Gradient:
     Atom            X                  Y                   Z
    ------   -----------------  -----------------  -----------------
       1       -0.319106668027     0.249258493798     0.000000000000
       2        0.016765065745    -0.110998925079    -0.000000000000
       3        0.302341602282    -0.138259568720    -0.000000000000

*** Psi4 exiting successfully. Buy a developer a beer!
