                               Psi4 1.2a1.dev429

  ==> Input File <==

--------------------------------------------------------------------------
# density-fitted hartree fock energies and gradients with 6-31g
molecule h20 {
0 1
O 0.0000000000 0.0000000000 0.0000000000
H 0.0000000000 0.0000000000 1.1000000000
H 0.0000000000 0.1215537244 -0.6893654271
}

set basis 6-31g

gradient('hf')
--------------------------------------------------------------------------

    Molecular point group: cs
  Charge       = 0
  Multiplicity = 1
  Basis Set: 6-31G
    Blend: 6-31G
  Basis Set: (6-31G AUX)
    Blend: CC-PVDZ-JKFIT

    Orbital Energies (a.u.)
    -----------------------

    Doubly Occupied:

       1Ap   -20.495630     2Ap    -1.369794     3Ap    -0.798044
       4Ap    -0.476495     1App   -0.475710

  @DF-RHF Final Energy:   -75.80182899142996

   => Energetics <=

    Nuclear Repulsion Energy =             10.1913556074209168
    One-Electron Energy =                -124.7550225672417668
    Two-Electron Energy =                  38.7618379683908927
    Total Energy =                        -75.8018289914299572
    Molecular point group: cs

    Geometry (in Angstrom), charge = 0, multiplicity = 1:

       Center              X                  Y                   Z               Mass
    ------------   -----------------  -----------------  -----------------  -----------------
           O          0.006801834831     0.022978058094     0.000000000000    15.994914619560
           H          0.006801834831    -1.077021941906     0.000000000000     1.007825032070
           H         -0.114751889569     0.712343485194     0.000000000000     1.007825032070

  Basis Set: 6-31G
    Blend: 6-31G
  Basis Set: (6-31G AUX)
    Blend: CC-PVDZ-JKFIT

  -Total Gradient:
     Atom            X                  Y                   Z
    ------   -----------------  -----------------  -----------------
       1       -0.152135152133     0.848661145751     0.000000000000
       2        0.010784664263    -0.144618478523     0.000000000000
       3        0.141350487870    -0.704042667228     0.000000000000

*** Psi4 exiting successfully. Buy a developer a beer!
