                               Psi4 1.2a1.dev429

  ==> Input File <==

--------------------------------------------------------------------------
# density-fitted hartree fock energies and gradients with 6-31g
molecule h20 {
0 1
O 0.0000000000 0.0000000000 0.0000000000
H 0.0000000000 0.0000000000 0.9000000000
H 0.0000000000 1.3000000000 0.0000000000
}

set basis 6-31g

gradient('hf')
--------------------------------------------------------------------------

    Molecular point group: cs
  Charge       = 0
  Multiplicity = 1
  Basis Set: 6-31G
    Blend: 6-31G
  Basis Set: (6-31G AUX)
    Blend: CC-PVDZ-JKFIT

    Orbital Energies (a.u.)
    -----------------------

    Doubly Occupied:

       1Ap   -20.594798     2Ap    -1.336702     3Ap    -0.647646
       4Ap    -0.541640     1App   -0.507480

  @DF-RHF Final Energy:   -75.91315739923799

   => Energetics <=

    Nuclear Repulsion Energy =              8.2949535924723872
    One-Electron Energy =                -121.1596906890163154
    Two-Electron Energy =                  36.9515796973059452
    Total Energy =                        -75.9131573992379884
    Molecular point group: cs

    Geometry (in Angstrom), charge = 0, multiplicity = 1:

       Center              X                  Y                   Z               Mass
    ------------   -----------------  -----------------  -----------------  -----------------
           O          0.072744667627     0.050361692973     0.000000000000    15.994914619560
           H          0.072744667627    -0.849638307027     0.000000000000     1.007825032070
           H         -1.227255332373     0.050361692973     0.000000000000     1.007825032070

  Basis Set: 6-31G
    Blend: 6-31G
  Basis Set: (6-31G AUX)
    Blend: CC-PVDZ-JKFIT

  -Total Gradient:
     Atom            X                  Y                   Z
    ------   -----------------  -----------------  -----------------
       1        0.149285722555    -0.061864925420     0.000000000000
       2       -0.026904015121     0.080490782144     0.000000000000
       3       -0.122381707433    -0.018625856723     0.000000000000

*** Psi4 exiting successfully. Buy a developer a beer!
