                               Psi4 1.2a1.dev429

  ==> Input File <==

--------------------------------------------------------------------------
# density-fitted hartree fock energies and gradients with 6-31g
molecule h20 {
0 1
O 0.0000000000 0.0000000000 0.0000000000
H 0.0000000000 0.0000000000 0.8000000000
H 0.0000000000 0.5362311102 -0.4499513268
}

set basis 6-31g

gradient('hf')
--------------------------------------------------------------------------

    Molecular point group: cs
  Charge       = 0
  Multiplicity = 1
  Basis Set: 6-31G
    Blend: 6-31G
  Basis Set: (6-31G AUX)
    Blend: CC-PVDZ-JKFIT

    Orbital Energies (a.u.)
    -----------------------

    Doubly Occupied:

       1Ap   -20.509280     2Ap    -1.465196     3Ap    -0.902511
       4Ap    -0.547358     1App   -0.514089

  @DF-RHF Final Energy:   -75.82714770677831

   => Energetics <=

    Nuclear Repulsion Energy =             11.7285786229729450
    One-Electron Energy =                -127.2345816279356399
    Two-Electron Energy =                  39.6788552981843807
    Total Energy =                        -75.8271477067783053
    Molecular point group: cs

    Geometry (in Angstrom), charge = 0, multiplicity = 1:

       Center              X                  Y                   Z               Mass
    ------------   -----------------  -----------------  -----------------  -----------------
           O          0.030006118371     0.019587826450     0.000000000000    15.994914619560
           H          0.030006118371    -0.780412173550     0.000000000000     1.007825032070
           H         -0.506224991829     0.469539153250     0.000000000000     1.007825032070

  Basis Set: 6-31G
    Blend: 6-31G
  Basis Set: (6-31G AUX)
    Blend: CC-PVDZ-JKFIT

  -Total Gradient:
     Atom            X                  Y                   Z
    ------   -----------------  -----------------  -----------------
       1       -0.569370263183     0.181375435700     0.000000000000
       2        0.010743956864     0.271338846500     0.000000000000
       3        0.558626306319    -0.452714282200     0.000000000000

*** Psi4 exiting successfully. Buy a developer a beer!
