                               Psi4 1.2a1.dev429

  ==> Input File <==

--------------------------------------------------------------------------
# density-fitted hartree fock energies and gradients with 6-31g
molecule h2o {
0 1
O 0.0000000000 0.0000000000 0.0000000000
H 0.0000000000 0.0000000000 1.3000000000
H 0.0000000000 0.4000000000 -0.6928203230
}

set basis 6-31g

gradient('mp2')
--------------------------------------------------------------------------

    Molecular point group: cs
  Charge       = 0
  Multiplicity = 1
  Basis Set: 6-31G
    Blend: 6-31G
  Basis Set: (6-31G AUX)
    Blend: CC-PVDZ-JKFIT

    Orbital Energies (a.u.)
    -----------------------

    Doubly Occupied:

       1Ap   -20.516779     2Ap    -1.313875     3Ap    -0.698304
       4Ap    -0.464391     1App   -0.464085

  @DF-RHF Final Energy:   -75.84907355064941

   => Energetics <=

    Nuclear Repulsion Energy =              8.8085962905173609
    One-Electron Energy =                -122.4004729545481354
    Two-Electron Energy =                  37.7428031133813562
    Total Energy =                        -75.8490735506494218
  Basis Set: (6-31G AUX)
    Blend: CC-PVDZ-RI
    Molecular point group: cs

    Geometry (in Angstrom), charge = 0, multiplicity = 1:

       Center              X                  Y                   Z               Mass
    ------------   -----------------  -----------------  -----------------  -----------------
           O          0.022382974654     0.033976218303     0.000000000000    15.994914619560
           H          0.022382974654    -1.266023781697     0.000000000000     1.007825032070
           H         -0.377617025346     0.726796541303     0.000000000000     1.007825032070

  Basis Set: 6-31G
    Blend: 6-31G
  Basis Set: (6-31G AUX)
    Blend: CC-PVDZ-JKFIT
  Basis Set: (6-31G AUX)
    Blend: CC-PVDZ-JKFIT
	 Reference Energy          =     -75.8490735506494076 [Eh]
	 Singles Energy            =      -0.0000000000000000 [Eh]
	 Same-Spin Energy          =      -0.0315337152115359 [Eh]
	 Opposite-Spin Energy      =      -0.1014080583513758 [Eh]
	 Correlation Energy        =      -0.1329417735629117 [Eh]
	 Total Energy              =     -75.9820153242123126 [Eh]

	 ================> DF-SCS-MP2 Energies <==================
	-----------------------------------------------------------
	 SCS Same-Spin Scale       =       0.3333333333333333 [-]
	 SCS Opposite-Spin Scale   =       1.2000000000000000 [-]
	 SCS Same-Spin Energy      =      -0.0105112384038453 [Eh]
	 SCS Opposite-Spin Energy  =      -0.1216896700216510 [Eh]
	 SCS Correlation Energy    =      -0.1322009084254963 [Eh]
	 SCS Total Energy          =     -75.9812744590749105 [Eh]
	-----------------------------------------------------------

  -Total Gradient:
     Atom            X                  Y                   Z
    ------   -----------------  -----------------  -----------------
       1       -0.226343881837     0.382316097270     0.000000000000
       2        0.029484340377    -0.137169477790     0.000000000000
       3        0.196859541460    -0.245146619481    -0.000000000000

*** Psi4 exiting successfully. Buy a developer a beer!
