                               Psi4 1.2a1.dev429

  ==> Input File <==

--------------------------------------------------------------------------
# density-fitted hartree fock energies and gradients with 6-31g
molecule h2o {
0 1
O 0.0000000000 0.0000000000 0.0000000000
H 0.0000000000 0.0000000000 1.2000000000
H 0.0000000000 1.1276311449 -0.4104241720
}

set basis 6-31g

gradient('mp2')
--------------------------------------------------------------------------

    Molecular point group: c2v
  Charge       = 0
  Multiplicity = 1
  Basis Set: 6-31G
    Blend: 6-31G
  Basis Set: (6-31G AUX)
    Blend: CC-PVDZ-JKFIT

    Orbital Energies (a.u.)
    -----------------------

    Doubly Occupied:

       1A1   -20.600461     2A1    -1.258464     1B2    -0.601519
       3A1    -0.514847     1B1    -0.491869

  @DF-RHF Final Energy:   -75.90919926694413

   => Energetics <=

    Nuclear Repulsion Energy =              7.3248653184781416
    One-Electron Energy =                -119.5338084141944393
    Two-Electron Energy =                  36.2997438287721721
    Total Energy =                        -75.9091992669441140
  Basis Set: (6-31G AUX)
    Blend: CC-PVDZ-RI
    Molecular point group: c2v

    Geometry (in Angstrom), charge = 0, multiplicity = 1:

       Center              X                  Y                   Z               Mass
    ------------   -----------------  -----------------  -----------------  -----------------
           O          0.000000000000     0.000000000000    -0.077030081021    15.994914619560
           H          0.000000000000    -0.982982453138     0.611261642580     1.007825032070
           H         -0.000000000000     0.982982453138     0.611261642580     1.007825032070

  Basis Set: 6-31G
    Blend: 6-31G
  Basis Set: (6-31G AUX)
    Blend: CC-PVDZ-JKFIT
  Basis Set: (6-31G AUX)
    Blend: CC-PVDZ-JKFIT
	 Reference Energy          =     -75.9091992669441282 [Eh]
	 Singles Energy            =      -0.0000000000000000 [Eh]
	 Same-Spin Energy          =      -0.0347349446924578 [Eh]
	 Opposite-Spin Energy      =      -0.1161800513466447 [Eh]
	 Correlation Energy        =      -0.1509149960391025 [Eh]
	 Total Energy              =     -76.0601142629832339 [Eh]

	 ================> DF-SCS-MP2 Energies <==================
	-----------------------------------------------------------
	 SCS Same-Spin Scale       =       0.3333333333333333 [-]
	 SCS Opposite-Spin Scale   =       1.2000000000000000 [-]
	 SCS Same-Spin Energy      =      -0.0115783148974859 [Eh]
	 SCS Opposite-Spin Energy  =      -0.1394160616159737 [Eh]
	 SCS Correlation Energy    =      -0.1509943765134596 [Eh]
	 SCS Total Energy          =     -76.0601936434575947 [Eh]
	-----------------------------------------------------------

  -Total Gradient:
     Atom            X                  Y                   Z
    ------   -----------------  -----------------  -----------------
       1       -0.000000000000    -0.000000000004    -0.088898974047
       2        0.000000000000    -0.087269069445     0.044449487022
       3       -0.000000000000     0.087269069450     0.044449487025

*** Psi4 exiting successfully. Buy a developer a beer!
