                               Psi4 1.3.1 release

  ==> Input File <==

--------------------------------------------------------------------------
# density fitted hartree fock
molecule h2o {
0 1
H 0.0000000000 0.0000000000 1.0500000000
H 0.0000000000 0.7794228634 -0.4500000000
O 0.0000000000 0.0000000000 0.0000000000
}

set basis 6-31g
energy('hf')

--------------------------------------------------------------------------

    Molecular point group: cs

    Geometry (in Angstrom), charge = 0, multiplicity = 1:

       Center              X                  Y                   Z               Mass
    ------------   -----------------  -----------------  -----------------  -----------------
         H            0.043614505498    -1.016425538014     0.000000000000     1.007825032230
         H           -0.735808357902     0.483574461986     0.000000000000     1.007825032230
         O            0.043614505498     0.033574461986     0.000000000000    15.994914619570

  Charge       = 0
  Multiplicity = 1
  Basis Set: 6-31G
    Blend: 6-31G
  Basis Set: (6-31G AUX)
    Blend: CC-PVDZ-JKFIT

    Orbital Energies [Eh]
    ---------------------

    Doubly Occupied:

       1Ap   -20.550219     2Ap    -1.336116     3Ap    -0.723441
       4Ap    -0.527902     1App   -0.492271

  @DF-RHF Final Energy:   -75.97130624082958

   => Energetics <=

    Nuclear Repulsion Energy =              9.0486696902300707
    One-Electron Energy =                -122.7800459926642134
    Two-Electron Energy =                  37.7600700616045728
    Total Energy =                        -75.9713062408295627

  Dipole Moment: [D]
     X:    -1.9551      Y:    -1.2931      Z:     0.0000     Total:     2.3440

*** Psi4 exiting successfully. Buy a developer a beer!
