                               Psi4 1.2a1.dev429

  ==> Input File <==

--------------------------------------------------------------------------
# density-fitted hartree fock energies and gradients with 6-31g
molecule h2o {
0 1
O 0.0000000000 0.0000000000 0.0000000000
H 0.0000000000 0.0000000000 1.5000000000
H 0.0000000000 0.1389185421 -0.7878462024
}

set basis 6-31g

gradient('mp2')
--------------------------------------------------------------------------

    Molecular point group: cs
  Charge       = 0
  Multiplicity = 1
  Basis Set: 6-31G
    Blend: 6-31G
  Basis Set: (6-31G AUX)
    Blend: CC-PVDZ-JKFIT

    Orbital Energies (a.u.)
    -----------------------

    Doubly Occupied:

       1Ap   -20.482788     2Ap    -1.273437     3Ap    -0.639005
       1App   -0.430644     4Ap    -0.427108

  @DF-RHF Final Energy:   -75.76845741069059

   => Energetics <=

    Nuclear Repulsion Energy =              8.3449246060413085
    One-Electron Energy =                -121.7207992529004628
    Two-Electron Energy =                  37.6074172361685726
    Total Energy =                        -75.7684574106905870
  Basis Set: (6-31G AUX)
    Blend: CC-PVDZ-RI
    Molecular point group: cs

    Geometry (in Angstrom), charge = 0, multiplicity = 1:

       Center              X                  Y                   Z               Mass
    ------------   -----------------  -----------------  -----------------  -----------------
           O          0.007773525517     0.039850301004     0.000000000000    15.994914619560
           H          0.007773525517    -1.460149698996     0.000000000000     1.007825032070
           H         -0.131145016583     0.827696503404     0.000000000000     1.007825032070

  Basis Set: 6-31G
    Blend: 6-31G
  Basis Set: (6-31G AUX)
    Blend: CC-PVDZ-JKFIT
  Basis Set: (6-31G AUX)
    Blend: CC-PVDZ-JKFIT
	 Reference Energy          =     -75.7684574106905870 [Eh]
	 Singles Energy            =      -0.0000000000000000 [Eh]
	 Same-Spin Energy          =      -0.0327100181731639 [Eh]
	 Opposite-Spin Energy      =      -0.1044054978242877 [Eh]
	 Correlation Energy        =      -0.1371155159974516 [Eh]
	 Total Energy              =     -75.9055729266880377 [Eh]

	 ================> DF-SCS-MP2 Energies <==================
	-----------------------------------------------------------
	 SCS Same-Spin Scale       =       0.3333333333333333 [-]
	 SCS Opposite-Spin Scale   =       1.2000000000000000 [-]
	 SCS Same-Spin Energy      =      -0.0109033393910546 [Eh]
	 SCS Opposite-Spin Energy  =      -0.1252865973891452 [Eh]
	 SCS Correlation Energy    =      -0.1361899367801999 [Eh]
	 SCS Total Energy          =     -75.9046473474707852 [Eh]
	-----------------------------------------------------------

  -Total Gradient:
     Atom            X                  Y                   Z
    ------   -----------------  -----------------  -----------------
       1       -0.110550278214     0.437480232701     0.000000000000
       2        0.019904448488    -0.138324344301    -0.000000000000
       3        0.090645829725    -0.299155888400     0.000000000000

*** Psi4 exiting successfully. Buy a developer a beer!
