                               Psi4 1.2a1.dev429

  ==> Input File <==

--------------------------------------------------------------------------
# density-fitted hartree fock energies and gradients with 6-31g
molecule h2o {
0 1
O 0.0000000000 0.0000000000 0.0000000000
H 0.0000000000 0.0000000000 1.3000000000
H 0.0000000000 0.4446261863 -1.2216004070
}

set basis 6-31g

gradient('mp2')
--------------------------------------------------------------------------

    Molecular point group: c2v
  Charge       = 0
  Multiplicity = 1
  Basis Set: 6-31G
    Blend: 6-31G
  Basis Set: (6-31G AUX)
    Blend: CC-PVDZ-JKFIT

    Orbital Energies (a.u.)
    -----------------------

    Doubly Occupied:

       1A1   -20.534706     2A1    -1.177890     1B2    -0.565625
       1B1    -0.435320     3A1    -0.427496

  @DF-RHF Final Energy:   -75.80334925290910

   => Energetics <=

    Nuclear Repulsion Energy =              6.7196197288753003
    One-Electron Energy =                -118.7638649306989151
    Two-Electron Energy =                  36.2408959489145133
    Total Energy =                        -75.8033492529091006
  Basis Set: (6-31G AUX)
    Blend: CC-PVDZ-RI
    Molecular point group: c2v

    Geometry (in Angstrom), charge = 0, multiplicity = 1:

       Center              X                  Y                   Z               Mass
    ------------   -----------------  -----------------  -----------------  -----------------
           O          0.000000000000     0.000000000000    -0.025263957936    15.994914619560
           H          0.000000000000    -1.280250078903     0.200478673022     1.007825032070
           H         -0.000000000000     1.280250078903     0.200478673022     1.007825032070

  Basis Set: 6-31G
    Blend: 6-31G
  Basis Set: (6-31G AUX)
    Blend: CC-PVDZ-JKFIT
  Basis Set: (6-31G AUX)
    Blend: CC-PVDZ-JKFIT
	 Reference Energy          =     -75.8033492529091006 [Eh]
	 Singles Energy            =      -0.0000000000000000 [Eh]
	 Same-Spin Energy          =      -0.0350354003525749 [Eh]
	 Opposite-Spin Energy      =      -0.1138153245683663 [Eh]
	 Correlation Energy        =      -0.1488507249209412 [Eh]
	 Total Energy              =     -75.9521999778300483 [Eh]

	 ================> DF-SCS-MP2 Energies <==================
	-----------------------------------------------------------
	 SCS Same-Spin Scale       =       0.3333333333333333 [-]
	 SCS Opposite-Spin Scale   =       1.2000000000000000 [-]
	 SCS Same-Spin Energy      =      -0.0116784667841916 [Eh]
	 SCS Opposite-Spin Energy  =      -0.1365783894820395 [Eh]
	 SCS Correlation Energy    =      -0.1482568562662312 [Eh]
	 SCS Total Energy          =     -75.9516061091753301 [Eh]
	-----------------------------------------------------------

  -Total Gradient:
     Atom            X                  Y                   Z
    ------   -----------------  -----------------  -----------------
       1       -0.000000000000    -0.000000000018     0.037459680969
       2        0.000000000000    -0.122348069651    -0.018729840484
       3       -0.000000000000     0.122348069668    -0.018729840485

*** Psi4 exiting successfully. Buy a developer a beer!
