                               Psi4 1.3.1 release

  ==> Input File <==

--------------------------------------------------------------------------
# density fitted hartree fock
molecule h2o {
0 1
H 0.0000000000 0.0000000000 0.8500000000
H 0.0000000000 0.8427281322 -0.1109472634
O 0.0000000000 0.0000000000 0.0000000000
}

set basis 6-31g
energy('hf')

--------------------------------------------------------------------------

    Molecular point group: c2v

    Geometry (in Angstrom), charge = 0, multiplicity = 1:

       Center              X                  Y                   Z               Mass
    ------------   -----------------  -----------------  -----------------  -----------------
         H            0.000000000000    -0.639063836373     0.497721929995     1.007825032230
         H           -0.000000000000     0.639063836373     0.497721929995     1.007825032230
         O            0.000000000000     0.000000000000    -0.062722012848    15.994914619570

  Charge       = 0
  Multiplicity = 1
  Basis Set: 6-31G
    Blend: 6-31G
  Basis Set: (6-31G AUX)
    Blend: CC-PVDZ-JKFIT

    Orbital Energies [Eh]
    ---------------------

    Doubly Occupied:

       1A1   -20.543098     2A1    -1.432988     1B2    -0.758537
       3A1    -0.590311     1B1    -0.511585

  @DF-RHF Final Energy:   -75.94893192969676

   => Energetics <=

    Nuclear Repulsion Energy =             10.3750081025951921
    One-Electron Energy =                -124.9748487260813192
    Two-Electron Energy =                  38.6509086937893755
    Total Energy =                        -75.9489319296967551

  Dipole Moment: [D]
     X:     0.0000      Y:     0.0000      Z:     2.6885     Total:     2.6885

*** Psi4 exiting successfully. Buy a developer a beer!
