                               Psi4 1.2a1.dev429

  ==> Input File <==

--------------------------------------------------------------------------
# density-fitted hartree fock energies and gradients with 6-31g
molecule h2o {
0 1
O 0.0000000000 0.0000000000 0.0000000000
H 0.0000000000 0.0000000000 1.4000000000
H 0.0000000000 1.4772116295 -0.2604722665
}

set basis 6-31g

gradient('mp2')
--------------------------------------------------------------------------

    Molecular point group: cs
  Charge       = 0
  Multiplicity = 1
  Basis Set: 6-31G
    Blend: 6-31G
  Basis Set: (6-31G AUX)
    Blend: CC-PVDZ-JKFIT

    Orbital Energies (a.u.)
    -----------------------

    Doubly Occupied:

       1Ap   -20.644403     2Ap    -1.224477     3Ap    -0.520923
       1App   -0.502278     4Ap    -0.487589

  @DF-RHF Final Energy:   -75.79089149285167

   => Energetics <=

    Nuclear Repulsion Energy =              6.0842526230870684
    One-Electron Energy =                -116.9909458170080256
    Two-Electron Energy =                  35.1158017010692802
    Total Energy =                        -75.7908914928516708
  Basis Set: (6-31G AUX)
    Blend: CC-PVDZ-RI
    Molecular point group: cs

    Geometry (in Angstrom), charge = 0, multiplicity = 1:

       Center              X                  Y                   Z               Mass
    ------------   -----------------  -----------------  -----------------  -----------------
           O          0.082660976156     0.063765050942     0.000000000000    15.994914619560
           H          0.082660976156    -1.336234949058     0.000000000000     1.007825032070
           H         -1.394550653344     0.324237317442     0.000000000000     1.007825032070

  Basis Set: 6-31G
    Blend: 6-31G
  Basis Set: (6-31G AUX)
    Blend: CC-PVDZ-JKFIT
  Basis Set: (6-31G AUX)
    Blend: CC-PVDZ-JKFIT
	 Reference Energy          =     -75.7908914928516708 [Eh]
	 Singles Energy            =      -0.0000000000000000 [Eh]
	 Same-Spin Energy          =      -0.0398918702389831 [Eh]
	 Opposite-Spin Energy      =      -0.1402684410001880 [Eh]
	 Correlation Energy        =      -0.1801603112391710 [Eh]
	 Total Energy              =     -75.9710518040908482 [Eh]

	 ================> DF-SCS-MP2 Energies <==================
	-----------------------------------------------------------
	 SCS Same-Spin Scale       =       0.3333333333333333 [-]
	 SCS Opposite-Spin Scale   =       1.2000000000000000 [-]
	 SCS Same-Spin Energy      =      -0.0132972900796610 [Eh]
	 SCS Opposite-Spin Energy  =      -0.1683221292002255 [Eh]
	 SCS Correlation Energy    =      -0.1816194192798866 [Eh]
	 SCS Total Energy          =     -75.9725109121315541 [Eh]
	-----------------------------------------------------------

  -Total Gradient:
     Atom            X                  Y                   Z
    ------   -----------------  -----------------  -----------------
       1        0.082381524552     0.071679420505     0.000000000000
       2        0.008648298864    -0.095926696552     0.000000000000
       3       -0.091029823417     0.024247276047    -0.000000000000

*** Psi4 exiting successfully. Buy a developer a beer!
