                               Psi4 1.2a1.dev429

  ==> Input File <==

--------------------------------------------------------------------------
# density-fitted hartree fock energies and gradients with 6-31g
molecule h2o {
0 1
O 0.0000000000 0.0000000000 0.0000000000
H 0.0000000000 0.0000000000 1.0000000000
H 0.0000000000 0.6894399988 -0.5785088487
}

set basis 6-31g

gradient('mp2')
--------------------------------------------------------------------------

    Molecular point group: cs
  Charge       = 0
  Multiplicity = 1
  Basis Set: 6-31G
    Blend: 6-31G
  Basis Set: (6-31G AUX)
    Blend: CC-PVDZ-JKFIT

    Orbital Energies (a.u.)
    -----------------------

    Doubly Occupied:

       1Ap   -20.537212     2Ap    -1.334951     3Ap    -0.750146
       4Ap    -0.514556     1App   -0.488240

  @DF-RHF Final Energy:   -75.97207896105618

   => Energetics <=

    Nuclear Repulsion Energy =              9.2444291207332103
    One-Electron Energy =                -123.1828054623763364
    Two-Electron Energy =                  37.9662973805869370
    Total Energy =                        -75.9720789610561837
  Basis Set: (6-31G AUX)
    Blend: CC-PVDZ-RI
    Molecular point group: cs

    Geometry (in Angstrom), charge = 0, multiplicity = 1:

       Center              X                  Y                   Z               Mass
    ------------   -----------------  -----------------  -----------------  -----------------
           O          0.038579295047     0.023585564392     0.000000000000    15.994914619560
           H          0.038579295047    -0.976414435608     0.000000000000     1.007825032070
           H         -0.650860703753     0.602094413092     0.000000000000     1.007825032070

  Basis Set: 6-31G
    Blend: 6-31G
  Basis Set: (6-31G AUX)
    Blend: CC-PVDZ-JKFIT
  Basis Set: (6-31G AUX)
    Blend: CC-PVDZ-JKFIT
	 Reference Energy          =     -75.9720789610561837 [Eh]
	 Singles Energy            =      -0.0000000000000000 [Eh]
	 Same-Spin Energy          =      -0.0302716590153415 [Eh]
	 Opposite-Spin Energy      =      -0.0967353855536753 [Eh]
	 Correlation Energy        =      -0.1270070445690168 [Eh]
	 Total Energy              =     -76.0990860056251961 [Eh]

	 ================> DF-SCS-MP2 Energies <==================
	-----------------------------------------------------------
	 SCS Same-Spin Scale       =       0.3333333333333333 [-]
	 SCS Opposite-Spin Scale   =       1.2000000000000000 [-]
	 SCS Same-Spin Energy      =      -0.0100905530051138 [Eh]
	 SCS Opposite-Spin Energy  =      -0.1160824626644103 [Eh]
	 SCS Correlation Energy    =      -0.1261730156695242 [Eh]
	 SCS Total Energy          =     -76.0982519767257060 [Eh]
	-----------------------------------------------------------

  -Total Gradient:
     Atom            X                  Y                   Z
    ------   -----------------  -----------------  -----------------
       1       -0.102299684666     0.070186088430    -0.000000000000
       2        0.024121890187    -0.039574787726     0.000000000000
       3        0.078177794479    -0.030611300704     0.000000000000

*** Psi4 exiting successfully. Buy a developer a beer!
