                               Psi4 1.2a1.dev429

  ==> Input File <==

--------------------------------------------------------------------------
# density-fitted hartree fock energies and gradients with 6-31g
molecule h20 {
0 1
O 0.0000000000 0.0000000000 0.0000000000
H 0.0000000000 0.0000000000 0.7000000000
H 0.0000000000 0.2736161147 -0.7517540966
}

set basis 6-31g

gradient('hf')
--------------------------------------------------------------------------

    Molecular point group: cs
  Charge       = 0
  Multiplicity = 1
  Basis Set: 6-31G
    Blend: 6-31G
  Basis Set: (6-31G AUX)
    Blend: CC-PVDZ-JKFIT

    Orbital Energies (a.u.)
    -----------------------

    Doubly Occupied:

       1Ap   -20.496486     2Ap    -1.433900     3Ap    -0.939596
       4Ap    -0.513825     1App   -0.508440

  @DF-RHF Final Energy:   -75.81217472243164

   => Energetics <=

    Nuclear Repulsion Energy =             11.6977139448362983
    One-Electron Energy =                -127.2352821144586841
    Two-Electron Energy =                  39.7253934471907542
    Total Energy =                        -75.8121747224316351
    Molecular point group: cs

    Geometry (in Angstrom), charge = 0, multiplicity = 1:

       Center              X                  Y                   Z               Mass
    ------------   -----------------  -----------------  -----------------  -----------------
           O          0.015310856401    -0.002896026581     0.000000000000    15.994914619560
           H          0.015310856401    -0.702896026581     0.000000000000     1.007825032070
           H         -0.258305258299     0.748858070019     0.000000000000     1.007825032070

  Basis Set: 6-31G
    Blend: 6-31G
  Basis Set: (6-31G AUX)
    Blend: CC-PVDZ-JKFIT

  -Total Gradient:
     Atom            X                  Y                   Z
    ------   -----------------  -----------------  -----------------
       1       -0.124459677122    -0.470788606926     0.000000000000
       2        0.020598451027     0.703447367921     0.000000000000
       3        0.103861226094    -0.232658760996     0.000000000000

*** Psi4 exiting successfully. Buy a developer a beer!
