                               Psi4 1.2a1.dev429

  ==> Input File <==

--------------------------------------------------------------------------
# density-fitted hartree fock energies and gradients with 6-31g
molecule h2o {
0 1
O 0.0000000000 0.0000000000 0.0000000000
H 0.0000000000 0.0000000000 1.2000000000
H 0.0000000000 0.1389185421 -0.7878462024
}

set basis 6-31g

gradient('mp2')
--------------------------------------------------------------------------

    Molecular point group: cs
  Charge       = 0
  Multiplicity = 1
  Basis Set: 6-31G
    Blend: 6-31G
  Basis Set: (6-31G AUX)
    Blend: CC-PVDZ-JKFIT

    Orbital Energies (a.u.)
    -----------------------

    Doubly Occupied:

       1Ap   -20.497566     2Ap    -1.304951     3Ap    -0.728502
       4Ap    -0.457453     1App   -0.457161

  @DF-RHF Final Energy:   -75.86202184540591

   => Energetics <=

    Nuclear Repulsion Energy =              9.0851787830302282
    One-Electron Energy =                -123.0031351953060152
    Two-Electron Energy =                  38.0559345668698938
    Total Energy =                        -75.8620218454058914
  Basis Set: (6-31G AUX)
    Blend: CC-PVDZ-RI
    Molecular point group: cs

    Geometry (in Angstrom), charge = 0, multiplicity = 1:

       Center              X                  Y                   Z               Mass
    ------------   -----------------  -----------------  -----------------  -----------------
           O          0.007773525517     0.023063070014     0.000000000000    15.994914619560
           H          0.007773525517    -1.176936929986     0.000000000000     1.007825032070
           H         -0.131145016583     0.810909272414     0.000000000000     1.007825032070

  Basis Set: 6-31G
    Blend: 6-31G
  Basis Set: (6-31G AUX)
    Blend: CC-PVDZ-JKFIT
  Basis Set: (6-31G AUX)
    Blend: CC-PVDZ-JKFIT
	 Reference Energy          =     -75.8620218454059057 [Eh]
	 Singles Energy            =      -0.0000000000000000 [Eh]
	 Same-Spin Energy          =      -0.0308485778382857 [Eh]
	 Opposite-Spin Energy      =      -0.0969386689505791 [Eh]
	 Correlation Energy        =      -0.1277872467888648 [Eh]
	 Total Energy              =     -75.9898090921947755 [Eh]

	 ================> DF-SCS-MP2 Energies <==================
	-----------------------------------------------------------
	 SCS Same-Spin Scale       =       0.3333333333333333 [-]
	 SCS Opposite-Spin Scale   =       1.2000000000000000 [-]
	 SCS Same-Spin Energy      =      -0.0102828592794286 [Eh]
	 SCS Opposite-Spin Energy  =      -0.1163264027406950 [Eh]
	 SCS Correlation Energy    =      -0.1266092620201235 [Eh]
	 SCS Total Energy          =     -75.9886311074260306 [Eh]
	-----------------------------------------------------------

  -Total Gradient:
     Atom            X                  Y                   Z
    ------   -----------------  -----------------  -----------------
       1       -0.084957064474     0.435228659955    -0.000000000000
       2        0.013483561984    -0.146355393844     0.000000000000
       3        0.071473502490    -0.288873266110     0.000000000000

*** Psi4 exiting successfully. Buy a developer a beer!
