                               Psi4 1.2a1.dev429

  ==> Input File <==

--------------------------------------------------------------------------
# density-fitted hartree fock energies and gradients with 6-31g
molecule h20 {
0 1
O 0.0000000000 0.0000000000 0.0000000000
H 0.0000000000 0.0000000000 0.8000000000
H 0.0000000000 0.3078181290 -0.8457233587
}

set basis 6-31g

gradient('hf')
--------------------------------------------------------------------------

    Molecular point group: cs
  Charge       = 0
  Multiplicity = 1
  Basis Set: 6-31G
    Blend: 6-31G
  Basis Set: (6-31G AUX)
    Blend: CC-PVDZ-JKFIT

    Orbital Energies (a.u.)
    -----------------------

    Doubly Occupied:

       1Ap   -20.503744     2Ap    -1.365513     3Ap    -0.848927
       4Ap    -0.493964     1App   -0.489166

  @DF-RHF Final Energy:   -75.92387967683089

   => Energetics <=

    Nuclear Repulsion Energy =             10.3116352122269532
    One-Electron Energy =                -125.0684015416288020
    Two-Electron Energy =                  38.8328866525709486
    Total Energy =                        -75.9238796768308930
    Molecular point group: cs

    Geometry (in Angstrom), charge = 0, multiplicity = 1:

       Center              X                  Y                   Z               Mass
    ------------   -----------------  -----------------  -----------------  -----------------
           O          0.017224713449    -0.002558561947     0.000000000000    15.994914619560
           H          0.017224713449    -0.802558561947     0.000000000000     1.007825032070
           H         -0.290593415551     0.843164796753     0.000000000000     1.007825032070

  Basis Set: 6-31G
    Blend: 6-31G
  Basis Set: (6-31G AUX)
    Blend: CC-PVDZ-JKFIT

  -Total Gradient:
     Atom            X                  Y                   Z
    ------   -----------------  -----------------  -----------------
       1       -0.053670649695    -0.241554201660     0.000000000000
       2        0.023077723045     0.265630024387     0.000000000000
       3        0.030592926651    -0.024075822727     0.000000000000

*** Psi4 exiting successfully. Buy a developer a beer!
