                               Psi4 1.3.1 release

  ==> Input File <==

--------------------------------------------------------------------------
# density fitted hartree fock
molecule h2o {
0 1
H 0.0000000000 0.0000000000 1.2000000000
H 0.0000000000 0.9093266740 -0.5250000000
O 0.0000000000 0.0000000000 0.0000000000
}

set basis 6-31g
energy('hf')

--------------------------------------------------------------------------

    Molecular point group: cs

    Geometry (in Angstrom), charge = 0, multiplicity = 1:

       Center              X                  Y                   Z               Mass
    ------------   -----------------  -----------------  -----------------  -----------------
         H            0.050883589749    -1.162228730265     0.000000000000     1.007825032230
         H           -0.858443084251     0.562771269735     0.000000000000     1.007825032230
         O            0.050883589749     0.037771269735     0.000000000000    15.994914619570

  Charge       = 0
  Multiplicity = 1
  Basis Set: 6-31G
    Blend: 6-31G
  Basis Set: (6-31G AUX)
    Blend: CC-PVDZ-JKFIT

    Orbital Energies [Eh]
    ---------------------

    Doubly Occupied:

       1Ap   -20.576007     2Ap    -1.273993     3Ap    -0.643971
       4Ap    -0.506371     1App   -0.485302

  @DF-RHF Final Energy:   -75.93351450807774

   => Energetics <=

    Nuclear Repulsion Energy =              7.8310473666022773
    One-Electron Energy =                -120.5578174305014443
    Two-Electron Energy =                  36.7932555558214389
    Total Energy =                        -75.9335145080777352

  Dipole Moment: [D]
     X:    -1.9980      Y:    -1.2584      Z:     0.0000     Total:     2.3613

*** Psi4 exiting successfully. Buy a developer a beer!
