                               Psi4 1.2a1.dev429

  ==> Input File <==

--------------------------------------------------------------------------
# density-fitted hartree fock energies and gradients with 6-31g
molecule h2o {
0 1
O 0.0000000000 0.0000000000 0.0000000000
H 0.0000000000 0.0000000000 1.0000000000
H 0.0000000000 0.4104241720 -1.1276311449
}

set basis 6-31g

gradient('mp2')
--------------------------------------------------------------------------

    Molecular point group: cs
  Charge       = 0
  Multiplicity = 1
  Basis Set: 6-31G
    Blend: 6-31G
  Basis Set: (6-31G AUX)
    Blend: CC-PVDZ-JKFIT

    Orbital Energies (a.u.)
    -----------------------

    Doubly Occupied:

       1Ap   -20.517899     2Ap    -1.240938     3Ap    -0.668014
       4Ap    -0.449920     1App   -0.449611

  @DF-RHF Final Energy:   -75.89650619320791

   => Energetics <=

    Nuclear Repulsion Energy =              8.0054800887858129
    One-Electron Energy =                -121.1512085728415968
    Two-Electron Energy =                  37.2492222908478681
    Total Energy =                        -75.8965061932079124
  Basis Set: (6-31G AUX)
    Blend: CC-PVDZ-RI
    Molecular point group: cs

    Geometry (in Angstrom), charge = 0, multiplicity = 1:

       Center              X                  Y                   Z               Mass
    ------------   -----------------  -----------------  -----------------  -----------------
           O          0.022966284599    -0.007141911704     0.000000000000    15.994914619560
           H          0.022966284599    -1.007141911704     0.000000000000     1.007825032070
           H         -0.387457887401     1.120489233196     0.000000000000     1.007825032070

  Basis Set: 6-31G
    Blend: 6-31G
  Basis Set: (6-31G AUX)
    Blend: CC-PVDZ-JKFIT
  Basis Set: (6-31G AUX)
    Blend: CC-PVDZ-JKFIT
	 Reference Energy          =     -75.8965061932079124 [Eh]
	 Singles Energy            =      -0.0000000000000000 [Eh]
	 Same-Spin Energy          =      -0.0325588655603347 [Eh]
	 Opposite-Spin Energy      =      -0.1027593516700707 [Eh]
	 Correlation Energy        =      -0.1353182172304054 [Eh]
	 Total Energy              =     -76.0318244104383183 [Eh]

	 ================> DF-SCS-MP2 Energies <==================
	-----------------------------------------------------------
	 SCS Same-Spin Scale       =       0.3333333333333333 [-]
	 SCS Opposite-Spin Scale   =       1.2000000000000000 [-]
	 SCS Same-Spin Energy      =      -0.0108529551867782 [Eh]
	 SCS Opposite-Spin Energy  =      -0.1233112220040849 [Eh]
	 SCS Correlation Energy    =      -0.1341641771908631 [Eh]
	 SCS Total Energy          =     -76.0306703703987807 [Eh]
	-----------------------------------------------------------

  -Total Gradient:
     Atom            X                  Y                   Z
    ------   -----------------  -----------------  -----------------
       1       -0.016491527579    -0.090086207423     0.000000000000
       2        0.034239807423    -0.042102205007    -0.000000000000
       3       -0.017748279844     0.132188412431     0.000000000000

*** Psi4 exiting successfully. Buy a developer a beer!
