                               Psi4 1.2a1.dev429

  ==> Input File <==

--------------------------------------------------------------------------
# density-fitted hartree fock energies and gradients with 6-31g
molecule h2o {
0 1
O 0.0000000000 0.0000000000 0.0000000000
H 0.0000000000 0.0000000000 1.2000000000
H 0.0000000000 0.1736481777 -0.9848077530
}

set basis 6-31g

gradient('mp2')
--------------------------------------------------------------------------

    Molecular point group: cs
  Charge       = 0
  Multiplicity = 1
  Basis Set: 6-31G
    Blend: 6-31G
  Basis Set: (6-31G AUX)
    Blend: CC-PVDZ-JKFIT

    Orbital Energies (a.u.)
    -----------------------

    Doubly Occupied:

       1Ap   -20.507799     2Ap    -1.232590     3Ap    -0.666915
       1App   -0.442564     4Ap    -0.442481

  @DF-RHF Final Energy:   -75.88877599536580

   => Energetics <=

    Nuclear Repulsion Energy =              8.0027119891823784
    One-Electron Energy =                -121.1982772804932438
    Two-Electron Energy =                  37.3067892959450731
    Total Energy =                        -75.8887759953657905
  Basis Set: (6-31G AUX)
    Blend: CC-PVDZ-RI
    Molecular point group: cs

    Geometry (in Angstrom), charge = 0, multiplicity = 1:

       Center              X                  Y                   Z               Mass
    ------------   -----------------  -----------------  -----------------  -----------------
           O          0.009716906901     0.012041606526     0.000000000000    15.994914619560
           H          0.009716906901    -1.187958393474     0.000000000000     1.007825032070
           H         -0.163931270799     0.996849359526     0.000000000000     1.007825032070

  Basis Set: 6-31G
    Blend: 6-31G
  Basis Set: (6-31G AUX)
    Blend: CC-PVDZ-JKFIT
  Basis Set: (6-31G AUX)
    Blend: CC-PVDZ-JKFIT
	 Reference Energy          =     -75.8887759953658048 [Eh]
	 Singles Energy            =      -0.0000000000000000 [Eh]
	 Same-Spin Energy          =      -0.0324190236205721 [Eh]
	 Opposite-Spin Energy      =      -0.1014781809586749 [Eh]
	 Correlation Energy        =      -0.1338972045792470 [Eh]
	 Total Energy              =     -76.0226731999450465 [Eh]

	 ================> DF-SCS-MP2 Energies <==================
	-----------------------------------------------------------
	 SCS Same-Spin Scale       =       0.3333333333333333 [-]
	 SCS Opposite-Spin Scale   =       1.2000000000000000 [-]
	 SCS Same-Spin Energy      =      -0.0108063412068574 [Eh]
	 SCS Opposite-Spin Energy  =      -0.1217738171504099 [Eh]
	 SCS Correlation Energy    =      -0.1325801583572673 [Eh]
	 SCS Total Energy          =     -76.0213561537230760 [Eh]
	-----------------------------------------------------------

  -Total Gradient:
     Atom            X                  Y                   Z
    ------   -----------------  -----------------  -----------------
       1       -0.028135089112     0.086982028247     0.000000000000
       2        0.016656928542    -0.136994258150    -0.000000000000
       3        0.011478160570     0.050012229903    -0.000000000000

*** Psi4 exiting successfully. Buy a developer a beer!
