                               Psi4 1.2a1.dev429

  ==> Input File <==

--------------------------------------------------------------------------
# density-fitted hartree fock energies and gradients with 6-31g
molecule h2o {
0 1
O 0.0000000000 0.0000000000 0.0000000000
H 0.0000000000 0.0000000000 1.5000000000
H 0.0000000000 1.2990381057 -0.7500000000
}

set basis 6-31g

gradient('mp2')
--------------------------------------------------------------------------

    Molecular point group: c2v
  Charge       = 0
  Multiplicity = 1
  Basis Set: 6-31G
    Blend: 6-31G
  Basis Set: (6-31G AUX)
    Blend: CC-PVDZ-JKFIT

    Orbital Energies (a.u.)
    -----------------------

    Doubly Occupied:

       1A1   -20.631825     2A1    -1.205779     1B2    -0.510401
       1B1    -0.490383     3A1    -0.461017

  @DF-RHF Final Energy:   -75.75646100976680

   => Energetics <=

    Nuclear Repulsion Energy =              5.8482372941400191
    One-Electron Energy =                -116.6105868112066446
    Two-Electron Energy =                  35.0058885072998436
    Total Energy =                        -75.7564610097667810
  Basis Set: (6-31G AUX)
    Blend: CC-PVDZ-RI
    Molecular point group: c2v

    Geometry (in Angstrom), charge = 0, multiplicity = 1:

       Center              X                  Y                   Z               Mass
    ------------   -----------------  -----------------  -----------------  -----------------
           O          0.000000000000     0.000000000000    -0.083936154955    15.994914619560
           H          0.000000000000    -1.299038105682     0.666063845055     1.007825032070
           H         -0.000000000000     1.299038105682     0.666063845055     1.007825032070

  Basis Set: 6-31G
    Blend: 6-31G
  Basis Set: (6-31G AUX)
    Blend: CC-PVDZ-JKFIT
  Basis Set: (6-31G AUX)
    Blend: CC-PVDZ-JKFIT
	 Reference Energy          =     -75.7564610097667952 [Eh]
	 Singles Energy            =      -0.0000000000000000 [Eh]
	 Same-Spin Energy          =      -0.0396997613864478 [Eh]
	 Opposite-Spin Energy      =      -0.1421045093974180 [Eh]
	 Correlation Energy        =      -0.1818042707838657 [Eh]
	 Total Energy              =     -75.9382652805506666 [Eh]

	 ================> DF-SCS-MP2 Energies <==================
	-----------------------------------------------------------
	 SCS Same-Spin Scale       =       0.3333333333333333 [-]
	 SCS Opposite-Spin Scale   =       1.2000000000000000 [-]
	 SCS Same-Spin Energy      =      -0.0132332537954826 [Eh]
	 SCS Opposite-Spin Energy  =      -0.1705254112769016 [Eh]
	 SCS Correlation Energy    =      -0.1837586650723842 [Eh]
	 SCS Total Energy          =     -75.9402196748391844 [Eh]
	-----------------------------------------------------------

  -Total Gradient:
     Atom            X                  Y                   Z
    ------   -----------------  -----------------  -----------------
       1       -0.000000000000     0.000000000003    -0.055907013139
       2        0.000000000000    -0.091060416613     0.027953506570
       3       -0.000000000000     0.091060416610     0.027953506569

*** Psi4 exiting successfully. Buy a developer a beer!
