                               Psi4 1.2a1.dev429

  ==> Input File <==

--------------------------------------------------------------------------
# density-fitted hartree fock energies and gradients with 6-31g
molecule h2o {
0 1
O 0.0000000000 0.0000000000 0.0000000000
H 0.0000000000 0.0000000000 0.9000000000
H 0.0000000000 0.0000000000 -1.5000000000
}

set basis 6-31g

gradient('mp2')
--------------------------------------------------------------------------

    Molecular point group: c2v
  Charge       = 0
  Multiplicity = 1
  Basis Set: 6-31G
    Blend: 6-31G
  Basis Set: (6-31G AUX)
    Blend: CC-PVDZ-JKFIT

    Orbital Energies (a.u.)
    -----------------------

    Doubly Occupied:

       1A1   -20.483476     2A1    -1.224605     3A1    -0.609697
       1B1    -0.419856     1B2    -0.419856

  @DF-RHF Final Energy:   -75.79590074651912

   => Energetics <=

    Nuclear Repulsion Energy =              7.7465663590813882
    One-Electron Energy =                -120.7699576730682338
    Two-Electron Energy =                  37.2274905674677257
    Total Energy =                        -75.7959007465191235
  Basis Set: (6-31G AUX)
    Blend: CC-PVDZ-RI
    Molecular point group: c2v

    Geometry (in Angstrom), charge = 0, multiplicity = 1:

       Center              X                  Y                   Z               Mass
    ------------   -----------------  -----------------  -----------------  -----------------
           O          0.000000000000     0.000000000000     0.033574461982    15.994914619560
           H          0.000000000000     0.000000000000     0.933574461982     1.007825032070
           H          0.000000000000     0.000000000000    -1.466425538018     1.007825032070

  Basis Set: 6-31G
    Blend: 6-31G
  Basis Set: (6-31G AUX)
    Blend: CC-PVDZ-JKFIT
  Basis Set: (6-31G AUX)
    Blend: CC-PVDZ-JKFIT
	 Reference Energy          =     -75.7959007465191235 [Eh]
	 Singles Energy            =      -0.0000000000000000 [Eh]
	 Same-Spin Energy          =      -0.0333580742049320 [Eh]
	 Opposite-Spin Energy      =      -0.1052240529181099 [Eh]
	 Correlation Energy        =      -0.1385821271230419 [Eh]
	 Total Energy              =     -75.9344828736421675 [Eh]

	 ================> DF-SCS-MP2 Energies <==================
	-----------------------------------------------------------
	 SCS Same-Spin Scale       =       0.3333333333333333 [-]
	 SCS Opposite-Spin Scale   =       1.2000000000000000 [-]
	 SCS Same-Spin Energy      =      -0.0111193580683107 [Eh]
	 SCS Opposite-Spin Energy  =      -0.1262688635017319 [Eh]
	 SCS Correlation Energy    =      -0.1373882215700425 [Eh]
	 SCS Total Energy          =     -75.9332889680891725 [Eh]
	-----------------------------------------------------------

  -Total Gradient:
     Atom            X                  Y                   Z
    ------   -----------------  -----------------  -----------------
       1       -0.000000000000     0.000000000000     0.222277755983
       2       -0.000000000000    -0.000000000000    -0.079505341147
       3        0.000000000000    -0.000000000000    -0.142772414837

*** Psi4 exiting successfully. Buy a developer a beer!
