                               Psi4 1.2a1.dev429

  ==> Input File <==

--------------------------------------------------------------------------
# density-fitted hartree fock energies and gradients with 6-31g
molecule h2o {
0 1
O 0.0000000000 0.0000000000 0.0000000000
H 0.0000000000 0.0000000000 1.3000000000
H 0.0000000000 0.0000000000 -1.3000000000
}

set basis 6-31g

gradient('mp2')
--------------------------------------------------------------------------

    Molecular point group: d2h
  Charge       = 0
  Multiplicity = 1
  Basis Set: 6-31G
    Blend: 6-31G
  Basis Set: (6-31G AUX)
    Blend: CC-PVDZ-JKFIT

    Orbital Energies (a.u.)
    -----------------------

    Doubly Occupied:

       1Ag   -20.506391     2Ag    -1.157670     1B1u   -0.556910
       1B3u   -0.415207     1B2u   -0.415207

  @DF-RHF Final Energy:   -75.78888009394426

   => Energetics <=

    Nuclear Repulsion Energy =              6.7164799551807679
    One-Electron Energy =                -118.9079503344460989
    Two-Electron Energy =                  36.4025902853210681
    Total Energy =                        -75.7888800939442575
  Basis Set: (6-31G AUX)
    Blend: CC-PVDZ-RI
    Molecular point group: d2h

    Geometry (in Angstrom), charge = 0, multiplicity = 1:

       Center              X                  Y                   Z               Mass
    ------------   -----------------  -----------------  -----------------  -----------------
           O          0.000000000000     0.000000000000     0.000000000000    15.994914619560
           H          0.000000000000     0.000000000000     1.300000000000     1.007825032070
           H          0.000000000000     0.000000000000    -1.300000000000     1.007825032070

  Basis Set: 6-31G
    Blend: 6-31G
  Basis Set: (6-31G AUX)
    Blend: CC-PVDZ-JKFIT
  Basis Set: (6-31G AUX)
    Blend: CC-PVDZ-JKFIT
	 Reference Energy          =     -75.7888800939442575 [Eh]
	 Singles Energy            =      -0.0000000000000000 [Eh]
	 Same-Spin Energy          =      -0.0342132074887325 [Eh]
	 Opposite-Spin Energy      =      -0.1081073138822814 [Eh]
	 Correlation Energy        =      -0.1423205213710139 [Eh]
	 Total Energy              =     -75.9312006153152765 [Eh]

	 ================> DF-SCS-MP2 Energies <==================
	-----------------------------------------------------------
	 SCS Same-Spin Scale       =       0.3333333333333333 [-]
	 SCS Opposite-Spin Scale   =       1.2000000000000000 [-]
	 SCS Same-Spin Energy      =      -0.0114044024962442 [Eh]
	 SCS Opposite-Spin Energy  =      -0.1297287766587377 [Eh]
	 SCS Correlation Energy    =      -0.1411331791549819 [Eh]
	 SCS Total Energy          =     -75.9300132730992345 [Eh]
	-----------------------------------------------------------

  -Total Gradient:
     Atom            X                  Y                   Z
    ------   -----------------  -----------------  -----------------
       1       -0.000000000000    -0.000000000000    -0.000000000006
       2       -0.000000000000    -0.000000000000     0.132344181162
       3        0.000000000000     0.000000000000    -0.132344181156

*** Psi4 exiting successfully. Buy a developer a beer!
