                               Psi4 1.2a1.dev429

  ==> Input File <==

--------------------------------------------------------------------------
# density-fitted MP2 energies and gradients with 6-31g

molecule h20 {
0 2
C 0.0000000000 0.0000000000 0.0000000000
H 0.0000000000 0.0000000000 1.5000000000
H 0.0000000000 0.8660254038 -0.5000000000
H 0.0000000000 -0.8660254038 -0.5000000000
}

set reference uhf
set basis 6-31g

gradient('mp2')
--------------------------------------------------------------------------

    Molecular point group: c1

    Geometry (in Angstrom), charge = 0, multiplicity = 2:

       Center              X                  Y                   Z               Mass
    ------------   -----------------  -----------------  -----------------  -----------------
           C          0.000000000000     0.000000000000    -0.033541674799    12.000000000000
           H          0.000000000000     0.000000000000     1.466458325201     1.007825032070
           H         -0.000000000000     0.866025403800    -0.533541674799     1.007825032070
           H          0.000000000000    -0.866025403800    -0.533541674799     1.007825032070

  Charge       = 0
  Multiplicity = 2
  Basis Set: 6-31G
    Blend: 6-31G
  Basis Set: (6-31G AUX)
    Blend: CC-PVDZ-JKFIT

    Orbital Energies (a.u.)
    -----------------------

    Alpha Occupied:

       1A    -11.258502     2A     -0.959859     3A     -0.618966
       4A     -0.492994     5A     -0.397868

    Alpha Virtual:

       6A      0.177858     7A      0.301341     8A      0.342411
       9A      0.711577    10A      0.733285    11A      0.784283
      12A      0.991657    13A      1.053223    14A      1.315558
      15A      1.334249

    Beta Occupied:

       1A    -11.226977     2A     -0.848109     3A     -0.594911
       4A     -0.477564

    Beta Virtual:

       5A      0.154060     6A      0.202659     7A      0.316520
       8A      0.356480     9A      0.723969    10A      0.819237
      11A      0.885108    12A      1.004894    13A      1.047491
      14A      1.338683    15A      1.348810

    Final Occupation by Irrep:
              A
    DOCC [     4 ]
    SOCC [     1 ]

  Energy converged.

  @DF-UHF Final Energy:   -39.47448828398517

   => Energetics <=

    Nuclear Repulsion Energy =              9.2579622518010058
    One-Electron Energy =                 -70.5891515555669571
    Two-Electron Energy =                  21.8567010197807789
    Total Energy =                        -39.4744882839851741

  UHF NO Occupations:
  HONO-2 :    3  A 1.9979232
  HONO-1 :    4  A 1.9647292
  HONO-0 :    5  A 1.0000000
  LUNO+0 :    6  A 0.0352708
  LUNO+1 :    7  A 0.0020768
  LUNO+2 :    8  A 0.0011700
  LUNO+3 :    9  A 0.0000004

Properties will be evaluated at   0.000000,   0.000000,   0.000000 Bohr

Properties computed using the SCF density matrix

  Nuclear Dipole Moment: (a.u.)
     X:     0.0000      Y:     0.0000      Z:     0.3744

  Electronic Dipole Moment: (a.u.)
     X:     0.0000      Y:     0.0000      Z:    -0.5248

  Dipole Moment: (a.u.)
     X:     0.0000      Y:     0.0000      Z:    -0.1504     Total:     0.1504

  Dipole Moment: (Debye)
     X:     0.0000      Y:     0.0000      Z:    -0.3822     Total:     0.3822

*** tstop() called on adabbott at Thu Apr 12 13:56:22 2018
Module time:
	user time   =       0.14 seconds =       0.00 minutes
	system time =       0.27 seconds =       0.00 minutes
	total time  =          0 seconds =       0.00 minutes
Total time:
	user time   =       0.14 seconds =       0.00 minutes
	system time =       0.27 seconds =       0.00 minutes
	total time  =          0 seconds =       0.00 minutes
   => Loading Basis Set <=

    Name: (6-31G AUX)
    Role: JKFIT
    Keyword: DF_BASIS_SCF
    atoms 1   entry C          line   121 file /home/adabbott/Git/psi4/objdir/stage/usr/local/psi4/share/psi4/basis/cc-pvdz-jkfit.gbs
    atoms 2-4 entry H          line    51 file /home/adabbott/Git/psi4/objdir/stage/usr/local/psi4/share/psi4/basis/cc-pvdz-jkfit.gbs

   => Loading Basis Set <=

    Name: (6-31G AUX)
    Role: RIFIT
    Keyword: DF_BASIS_CC
    atoms 1   entry C          line   159 file /home/adabbott/Git/psi4/objdir/stage/usr/local/psi4/share/psi4/basis/cc-pvdz-ri.gbs
    atoms 2-4 entry H          line    19 file /home/adabbott/Git/psi4/objdir/stage/usr/local/psi4/share/psi4/basis/cc-pvdz-ri.gbs

*** tstart() called on adabbott
*** at Thu Apr 12 13:56:22 2018

  Options:
  ----------------------------------------------------------------------------
  ACTIVE                      => [  ]
  BASIS_RELATIVISTIC          => (empty)
  BENCH                       => 0
  CC_DIIS_MAX_VECS            => 6
  CC_DIIS_MIN_VECS            => 2
  CC_LAMBDA                   => FALSE
  CC_MAXITER                  => 50
  CC_TYPE                     => CONV
  CHOLESKY                    => FALSE
  CHOLESKY_TOLERANCE          => 0.0001
  CI_TYPE                     => CONV
  COMPUT_S2                   => FALSE
  CUBEPROP_BASIS_FUNCTIONS    => [  ]
  CUBEPROP_FILEPATH           => .
  CUBEPROP_ORBITALS           => [  ]
  CUBEPROP_TASKS              => [  ]
  CUBIC_BASIS_TOLERANCE       => 1e-12
  CUBIC_BLOCK_MAX_POINTS      => 1000
  CUBIC_GRID_OVERAGE          => [  ]
  CUBIC_GRID_SPACING          => [  ]
  CUTOFF                      => 8
  DEBUG                       => 0
  DERTYPE                     => FIRST           !
  DF_BASIS_CC                 => (empty)
  DIE_IF_NOT_CONVERGED        => TRUE
  DKH_ORDER                   => 2
  DOCC                        => [  ]
  DO_DIIS                     => TRUE
  DO_LEVEL_SHIFT              => TRUE
  DO_SCS                      => FALSE           !
  DO_SOS                      => FALSE           !
  E3_SCALE                    => 0.25
  EKT_IP                      => FALSE
  EXTERNAL_POTENTIAL_SYMMETRY => FALSE
  E_CONVERGENCE               => 1e-08           !
  FREEZE_CORE                 => FALSE
  FROZEN_DOCC                 => [  ]
  FROZEN_UOCC                 => [  ]
  HESS_TYPE                   => HF
  INTEGRAL_CUTOFF             => 9
  INTEGRAL_PACKAGE            => LIBINT
  LEVEL_SHIFT                 => 0.02
  LINEQ_SOLVER                => CDGESV
  LITERAL_CFOUR               => (empty)
  MAT_NUM_COLUMN_PRINT        => 5
  MAX_MOGRAD_CONVERGENCE      => 0.001
  MOLDEN_WITH_VIRTUAL         => TRUE
  MOLDEN_WRITE                => FALSE
  MO_DIIS_NUM_VECS            => 6
  MO_MAXITER                  => 50
  MO_STEP_MAX                 => 0.5
  MP2_AMP_TYPE                => DIRECT
  MP2_OS_SCALE                => 1.2
  MP2_SOS_SCALE               => 1.3
  MP2_SOS_SCALE2              => 1.2
  MP2_SS_SCALE                => 0.333333
  MP2_TYPE                    => DF
  MP_TYPE                     => CONV
  NAT_ORBS                    => FALSE
  NUM_FROZEN_DOCC             => 0
  NUM_FROZEN_UOCC             => 0
  OCC_ORBS_PRINT              => FALSE
  OEPROP                      => FALSE
  OO_SCALE                    => 0.01
  OPT_METHOD                  => QNR
  ORB_OPT                     => FALSE           !
  ORB_RESP_SOLVER             => PCG
  ORTH_TYPE                   => MGS
  PCG_BETA_TYPE               => FLETCHER_REEVES
  PCG_CONVERGENCE             => 1e-06
  PCG_MAXITER                 => 50
  PCM                         => FALSE
  PCM_CC_TYPE                 => PTE
  PCM_SCF_TYPE                => TOTAL
  PPL_TYPE                    => AUTO
  PRINT                       => 1
  PRINT_NOONS                 => 3
  PROPERTIES                  => [  ]
  PROPERTIES_ORIGIN           => [  ]
  PUREAM                      => TRUE
  QCHF                        => FALSE
  QC_MODULE                   => (empty)
  RAS1                        => [  ]
  RAS2                        => [  ]
  RAS3                        => [  ]
  RAS4                        => [  ]
  READ_SCF_3INDEX             => TRUE
  REGULARIZATION              => FALSE
  REG_PARAM                   => 0.4
  RELATIVISTIC                => NO
  RESTRICTED_DOCC             => [  ]
  RESTRICTED_UOCC             => [  ]
  RMS_MOGRAD_CONVERGENCE      => 1e-06
  R_CONVERGENCE               => 1e-05
  SCS_TYPE                    => SCS
  SOCC                        => [  ]
  SOS_TYPE                    => SOS
  TRIPLES_IABC_TYPE           => DISK
  UNITS                       => ANGSTROMS
  WFN                         => SCF
  WFN_TYPE                    => DF-OMP2         !
  WRITER_FILE_LABEL           => (empty)

 ==============================================================================
 ==============================================================================
 ==============================================================================

                       DF-MP2
              Program Written by Ugur Bozkaya
              Latest Revision April 17, 2016

 ==============================================================================
 ==============================================================================
 ==============================================================================

	MO Hessian type is changed to 'APPROX_DIAG'
	MO spaces...

	 FC   AOCC   BOCC  AVIR   BVIR   FV
	------------------------------------------
	  0     5     4    10     11     0
	Reading DF integrals from disk ...
	Number of basis functions in the DF-HF basis: 156
	Number of basis functions in the DF-CC basis:  98

	Available memory                      :    500.00 MB
	Minimum required memory for amplitudes:      0.06 MB

	Computing DF-MP2 energy using SCF MOs (Canonical DF-MP2)...
	=======================================================================
	Nuclear Repulsion Energy (a.u.)    :     9.25796225180101
	DF-HF Energy (a.u.)                :   -39.47448828398517
	REF Energy (a.u.)                  :   -39.47448828398517
	Alpha-Alpha Contribution (a.u.)    :    -0.00963304757626
	Alpha-Beta Contribution (a.u.)     :    -0.06424664897175
	Beta-Beta Contribution (a.u.)      :    -0.00340076950639
	Scaled_SS Correlation Energy (a.u.):    -0.00434460569422
	Scaled_OS Correlation Energy (a.u.):    -0.07709597876610
	DF-SCS-MP2 Total Energy (a.u.)     :   -39.55592886844549
	DF-SOS-MP2 Total Energy (a.u.)     :   -39.55800892764845
	DF-SCSN-MP2 Total Energy (a.u.)    :   -39.49742780205063
	DF-MP2 Correlation Energy (a.u.)   :    -0.07728046605440
	DF-MP2 Total Energy (a.u.)         :   -39.55176875003957
	=======================================================================

	Computing unrelaxed response density matrices...

	Forming independent-pairs...
	Number of alpha independent-pairs: 50
	Number of beta independent-pairs : 44
	Computing the generalized Fock matrix (GFM)...
	Computing the orbital gradient...
	Forming effective orbital gradient...
	Solving orbital Z-vector equations...

	            PCG Solver
	   ------------------------------
	Iter     RMS Z Vector        RMS Residual
	----    ---------------    ---------------
	  1         9.62e-03         3.61e-03
	  2         3.51e-03         1.77e-03
	  3         1.10e-03         3.60e-04
	  4         2.54e-04         9.37e-05
	  5         6.93e-05         2.79e-05
	  6         1.39e-05         4.70e-06
	  7         2.91e-06         8.68e-07
	  8         2.87e-07         1.73e-07

	Computing the relaxed PDMs and GFM...

*** tstop() called on adabbott at Thu Apr 12 13:56:22 2018
Module time:
	user time   =       0.13 seconds =       0.00 minutes
	system time =       0.50 seconds =       0.01 minutes
	total time  =          0 seconds =       0.00 minutes
Total time:
	user time   =       0.40 seconds =       0.01 minutes
	system time =       1.03 seconds =       0.02 minutes
	total time  =          0 seconds =       0.00 minutes

*** tstart() called on adabbott
*** at Thu Apr 12 13:56:22 2018

 ==============================================================================
 ==============================================================================
 ==============================================================================

                         DFGRAD
            A General Analytic Gradients Code
               for Density-Fitted Methods
                   by Ugur Bozkaya
              Latest Revision October 7, 2015

 ==============================================================================
 ==============================================================================
 ==============================================================================

	Analytic gradients computation is starting...
	Forming Gamma^tilde...
	Backtransforming OPDM, TPDM, and GFM to the AO basis...
	Computing analytic gradients...

  -Nuclear Gradient:
     Atom            X                  Y                   Z
    ------   -----------------  -----------------  -----------------
       1        0.000000000000     0.000000000000    -0.933428393569
       2        0.000000000000     0.000000000000    -0.854941364142
       3        0.000000000000    -1.571839396757     0.894184878856
       4       -0.000000000000     1.571839396757     0.894184878856

  -Kinetic Gradient:
     Atom            X                  Y                   Z
    ------   -----------------  -----------------  -----------------
       1       -0.000000000000     0.000000000000    -0.295841022088
       2        0.000000000000    -0.000000000000    -0.186694367636
       3       -0.000000000000    -0.393347194292     0.241267694862
       4        0.000000000000     0.393347194292     0.241267694862

  -Potential Gradient:
     Atom            X                  Y                   Z
    ------   -----------------  -----------------  -----------------
       1        0.000000000000    -0.000000000003     1.701798279600
       2       -0.000000000000    -0.000000000000     2.845831721098
       3        0.000000000000     3.703264630279    -2.273815000348
       4        0.000000000000    -3.703264630276    -2.273815000350

  -Overlap Gradient:
     Atom            X                  Y                   Z
    ------   -----------------  -----------------  -----------------
       1        0.000000000000     0.000000000000    -0.099107932754
       2        0.000000000000     0.000000000000    -0.154092893814
       3       -0.000000000000    -0.184408807669     0.126600413284
       4       -0.000000000000     0.184408807668     0.126600413284

  -One-Electron Gradient:
     Atom            X                  Y                   Z
    ------   -----------------  -----------------  -----------------
       1        0.000000000000    -0.000000000002     1.405957257513
       2       -0.000000000000    -0.000000000000     2.659137353462
       3        0.000000000000     3.309917435987    -2.032547305486
       4        0.000000000000    -3.309917435984    -2.032547305489

  -Two-Electron Gradient:
     Atom            X                  Y                   Z
    ------   -----------------  -----------------  -----------------
       1       -0.000000000000     0.000000000002    -0.543980462664
       2        0.000000000000     0.000000000000    -1.538486761755
       3       -0.000000000000    -1.626519646908     1.041233612209
       4        0.000000000000     1.626519646906     1.041233612211

  -Total Gradient:
     Atom            X                  Y                   Z
    ------   -----------------  -----------------  -----------------
       1        0.000000000000    -0.000000000000    -0.170559531475
       2       -0.000000000000     0.000000000000     0.111616333751
       3       -0.000000000000    -0.072850415347     0.029471598862
       4        0.000000000000     0.072850415347     0.029471598862

*** tstop() called on adabbott at Thu Apr 12 13:56:22 2018
Module time:
	user time   =       0.13 seconds =       0.00 minutes
	system time =       0.44 seconds =       0.01 minutes
	total time  =          0 seconds =       0.00 minutes
Total time:
	user time   =       0.53 seconds =       0.01 minutes
	system time =       1.47 seconds =       0.02 minutes
	total time  =          0 seconds =       0.00 minutes

*** Psi4 exiting successfully. Buy a developer a beer!
