                               Psi4 1.2a1.dev429

  ==> Input File <==

--------------------------------------------------------------------------
# density-fitted hartree fock energies and gradients with 6-31g
molecule h2o {
0 1
O 0.0000000000 0.0000000000 0.0000000000
H 0.0000000000 0.0000000000 0.8000000000
H 0.0000000000 0.7713451316 -0.9192533317
}

set basis 6-31g

gradient('mp2')
--------------------------------------------------------------------------

    Molecular point group: cs
  Charge       = 0
  Multiplicity = 1
  Basis Set: 6-31G
    Blend: 6-31G
  Basis Set: (6-31G AUX)
    Blend: CC-PVDZ-JKFIT

    Orbital Energies (a.u.)
    -----------------------

    Doubly Occupied:

       1Ap   -20.528056     2Ap    -1.334257     3Ap    -0.724949
       4Ap    -0.487545     1App   -0.477716

  @DF-RHF Final Energy:   -75.88936733300082

   => Energetics <=

    Nuclear Repulsion Energy =              9.1004463925304879
    One-Electron Energy =                -122.8745793279021115
    Two-Electron Energy =                  37.8847656023707984
    Total Energy =                        -75.8893673330008198
  Basis Set: (6-31G AUX)
    Blend: CC-PVDZ-RI
    Molecular point group: cs

    Geometry (in Angstrom), charge = 0, multiplicity = 1:

       Center              X                  Y                   Z               Mass
    ------------   -----------------  -----------------  -----------------  -----------------
           O          0.043162496326    -0.006673110752     0.000000000000    15.994914619560
           H          0.043162496326    -0.806673110752     0.000000000000     1.007825032070
           H         -0.728182635274     0.912580220948     0.000000000000     1.007825032070

  Basis Set: 6-31G
    Blend: 6-31G
  Basis Set: (6-31G AUX)
    Blend: CC-PVDZ-JKFIT
  Basis Set: (6-31G AUX)
    Blend: CC-PVDZ-JKFIT
	 Reference Energy          =     -75.8893673330008198 [Eh]
	 Singles Energy            =      -0.0000000000000000 [Eh]
	 Same-Spin Energy          =      -0.0308105530109971 [Eh]
	 Opposite-Spin Energy      =      -0.0990594453066295 [Eh]
	 Correlation Energy        =      -0.1298699983176266 [Eh]
	 Total Energy              =     -76.0192373313184504 [Eh]

	 ================> DF-SCS-MP2 Energies <==================
	-----------------------------------------------------------
	 SCS Same-Spin Scale       =       0.3333333333333333 [-]
	 SCS Opposite-Spin Scale   =       1.2000000000000000 [-]
	 SCS Same-Spin Energy      =      -0.0102701843369990 [Eh]
	 SCS Opposite-Spin Energy  =      -0.1188713343679554 [Eh]
	 SCS Correlation Energy    =      -0.1291415187049545 [Eh]
	 SCS Total Energy          =     -76.0185088517057750 [Eh]
	-----------------------------------------------------------

  -Total Gradient:
     Atom            X                  Y                   Z
    ------   -----------------  -----------------  -----------------
       1        0.017568301810    -0.426519822743    -0.000000000000
       2        0.042451304756     0.310962903680    -0.000000000000
       3       -0.060019606566     0.115556919062     0.000000000000

*** Psi4 exiting successfully. Buy a developer a beer!
