                               Psi4 1.2a1.dev429

  ==> Input File <==

--------------------------------------------------------------------------
# density-fitted hartree fock energies and gradients with 6-31g
molecule h2o {
0 1
O 0.0000000000 0.0000000000 0.0000000000
H 0.0000000000 0.0000000000 1.1000000000
H 0.0000000000 1.1000000000 0.0000000000
}

set basis 6-31g

gradient('mp2')
--------------------------------------------------------------------------

    Molecular point group: c2v
  Charge       = 0
  Multiplicity = 1
  Basis Set: 6-31G
    Blend: 6-31G
  Basis Set: (6-31G AUX)
    Blend: CC-PVDZ-JKFIT

    Orbital Energies (a.u.)
    -----------------------

    Doubly Occupied:

       1A1   -20.599482     2A1    -1.306830     1B2    -0.618211
       3A1    -0.565969     1B1    -0.504516

  @DF-RHF Final Energy:   -75.94595538281925

   => Energetics <=

    Nuclear Repulsion Energy =              8.0372910273485054
    One-Electron Energy =                -120.7764756260015986
    Two-Electron Energy =                  36.7932292158338470
    Total Energy =                        -75.9459553828192497
  Basis Set: (6-31G AUX)
    Blend: CC-PVDZ-RI
    Molecular point group: c2v

    Geometry (in Angstrom), charge = 0, multiplicity = 1:

       Center              X                  Y                   Z               Mass
    ------------   -----------------  -----------------  -----------------  -----------------
           O          0.000000000000     0.000000000000    -0.087049342387    15.994914619560
           H          0.000000000000    -0.777817459305     0.690768116918     1.007825032070
           H         -0.000000000000     0.777817459305     0.690768116918     1.007825032070

  Basis Set: 6-31G
    Blend: 6-31G
  Basis Set: (6-31G AUX)
    Blend: CC-PVDZ-JKFIT
  Basis Set: (6-31G AUX)
    Blend: CC-PVDZ-JKFIT
	 Reference Energy          =     -75.9459553828192497 [Eh]
	 Singles Energy            =      -0.0000000000000000 [Eh]
	 Same-Spin Energy          =      -0.0333970416264310 [Eh]
	 Opposite-Spin Energy      =      -0.1108326400051705 [Eh]
	 Correlation Energy        =      -0.1442296816316015 [Eh]
	 Total Energy              =     -76.0901850644508499 [Eh]

	 ================> DF-SCS-MP2 Energies <==================
	-----------------------------------------------------------
	 SCS Same-Spin Scale       =       0.3333333333333333 [-]
	 SCS Opposite-Spin Scale   =       1.2000000000000000 [-]
	 SCS Same-Spin Energy      =      -0.0111323472088103 [Eh]
	 SCS Opposite-Spin Energy  =      -0.1329991680062046 [Eh]
	 SCS Correlation Energy    =      -0.1441315152150150 [Eh]
	 SCS Total Energy          =     -76.0900868980342580 [Eh]
	-----------------------------------------------------------

  -Total Gradient:
     Atom            X                  Y                   Z
    ------   -----------------  -----------------  -----------------
       1        0.000000000000     0.000000000009    -0.114197305289
       2       -0.000000000000    -0.029407715601     0.057098652648
       3        0.000000000000     0.029407715592     0.057098652641

*** Psi4 exiting successfully. Buy a developer a beer!
