                               Psi4 1.2a1.dev429

  ==> Input File <==

--------------------------------------------------------------------------
# density-fitted hartree fock energies and gradients with 6-31g
molecule h2o {
0 1
O 0.0000000000 0.0000000000 0.0000000000
H 0.0000000000 0.0000000000 1.0000000000
H 0.0000000000 0.6500000000 -1.1258330249
}

set basis 6-31g

gradient('mp2')
--------------------------------------------------------------------------

    Molecular point group: cs
  Charge       = 0
  Multiplicity = 1
  Basis Set: 6-31G
    Blend: 6-31G
  Basis Set: (6-31G AUX)
    Blend: CC-PVDZ-JKFIT

    Orbital Energies (a.u.)
    -----------------------

    Doubly Occupied:

       1Ap   -20.534382     2Ap    -1.241742     3Ap    -0.643189
       1App   -0.455317     4Ap    -0.453359

  @DF-RHF Final Energy:   -75.87978633370199

   => Energetics <=

    Nuclear Repulsion Energy =              7.7279407423557478
    One-Electron Energy =                -120.5594760462981014
    Two-Electron Energy =                  36.9517489702403736
    Total Energy =                        -75.8797863337019862
  Basis Set: (6-31G AUX)
    Blend: CC-PVDZ-RI
    Molecular point group: cs

    Geometry (in Angstrom), charge = 0, multiplicity = 1:

       Center              X                  Y                   Z               Mass
    ------------   -----------------  -----------------  -----------------  -----------------
           O          0.036372333814    -0.007041293518     0.000000000000    15.994914619560
           H          0.036372333814    -1.007041293518     0.000000000000     1.007825032070
           H         -0.613627666186     1.118791731382     0.000000000000     1.007825032070

  Basis Set: 6-31G
    Blend: 6-31G
  Basis Set: (6-31G AUX)
    Blend: CC-PVDZ-JKFIT
  Basis Set: (6-31G AUX)
    Blend: CC-PVDZ-JKFIT
	 Reference Energy          =     -75.8797863337019862 [Eh]
	 Singles Energy            =      -0.0000000000000000 [Eh]
	 Same-Spin Energy          =      -0.0333286112270057 [Eh]
	 Opposite-Spin Energy      =      -0.1074514184146656 [Eh]
	 Correlation Energy        =      -0.1407800296416712 [Eh]
	 Total Energy              =     -76.0205663633436615 [Eh]

	 ================> DF-SCS-MP2 Energies <==================
	-----------------------------------------------------------
	 SCS Same-Spin Scale       =       0.3333333333333333 [-]
	 SCS Opposite-Spin Scale   =       1.2000000000000000 [-]
	 SCS Same-Spin Energy      =      -0.0111095370756686 [Eh]
	 SCS Opposite-Spin Energy  =      -0.1289417020975987 [Eh]
	 SCS Correlation Energy    =      -0.1400512391732673 [Eh]
	 SCS Total Energy          =     -76.0198375728752467 [Eh]
	-----------------------------------------------------------

  -Total Gradient:
     Atom            X                  Y                   Z
    ------   -----------------  -----------------  -----------------
       1       -0.010640712725    -0.096082207535     0.000000000000
       2        0.044402586614    -0.030706744655    -0.000000000000
       3       -0.033761873888     0.126788952190     0.000000000000

*** Psi4 exiting successfully. Buy a developer a beer!
