                               Psi4 1.2a1.dev429

  ==> Input File <==

--------------------------------------------------------------------------
# density-fitted hartree fock energies and gradients with 6-31g
molecule h2o {
0 1
O 0.0000000000 0.0000000000 0.0000000000
H 0.0000000000 0.0000000000 0.8000000000
H 0.0000000000 0.6000000000 -1.0392304845
}

set basis 6-31g

gradient('mp2')
--------------------------------------------------------------------------

    Molecular point group: cs
  Charge       = 0
  Multiplicity = 1
  Basis Set: 6-31G
    Blend: 6-31G
  Basis Set: (6-31G AUX)
    Blend: CC-PVDZ-JKFIT

    Orbital Energies (a.u.)
    -----------------------

    Doubly Occupied:

       1Ap   -20.516103     2Ap    -1.322765     3Ap    -0.727576
       4Ap    -0.474298     1App   -0.469721

  @DF-RHF Final Energy:   -75.87854045344805

   => Energetics <=

    Nuclear Repulsion Energy =              9.0931499333976831
    One-Electron Energy =                -122.9224557280565193
    Two-Electron Energy =                  37.9507653412107828
    Total Energy =                        -75.8785404534480534
  Basis Set: (6-31G AUX)
    Blend: CC-PVDZ-RI
    Molecular point group: cs

    Geometry (in Angstrom), charge = 0, multiplicity = 1:

       Center              X                  Y                   Z               Mass
    ------------   -----------------  -----------------  -----------------  -----------------
           O          0.033574461982    -0.013386724678     0.000000000000    15.994914619560
           H          0.033574461982    -0.813386724678     0.000000000000     1.007825032070
           H         -0.566425538018     1.025843759822     0.000000000000     1.007825032070

  Basis Set: 6-31G
    Blend: 6-31G
  Basis Set: (6-31G AUX)
    Blend: CC-PVDZ-JKFIT
  Basis Set: (6-31G AUX)
    Blend: CC-PVDZ-JKFIT
	 Reference Energy          =     -75.8785404534480534 [Eh]
	 Singles Energy            =      -0.0000000000000000 [Eh]
	 Same-Spin Energy          =      -0.0308995057295719 [Eh]
	 Opposite-Spin Energy      =      -0.0983755878446056 [Eh]
	 Correlation Energy        =      -0.1292750935741775 [Eh]
	 Total Energy              =     -76.0078155470222327 [Eh]

	 ================> DF-SCS-MP2 Energies <==================
	-----------------------------------------------------------
	 SCS Same-Spin Scale       =       0.3333333333333333 [-]
	 SCS Opposite-Spin Scale   =       1.2000000000000000 [-]
	 SCS Same-Spin Energy      =      -0.0102998352431906 [Eh]
	 SCS Opposite-Spin Energy  =      -0.1180507054135267 [Eh]
	 SCS Correlation Energy    =      -0.1283505406567174 [Eh]
	 SCS Total Energy          =     -76.0068909941047650 [Eh]
	-----------------------------------------------------------

  -Total Gradient:
     Atom            X                  Y                   Z
    ------   -----------------  -----------------  -----------------
       1       -0.000828460132    -0.435736772036     0.000000000000
       2        0.042887304900     0.305705642871    -0.000000000000
       3       -0.042058844768     0.130031129165     0.000000000000

*** Psi4 exiting successfully. Buy a developer a beer!
