                               Psi4 1.2a1.dev429

  ==> Input File <==

--------------------------------------------------------------------------
# density-fitted hartree fock energies and gradients with 6-31g
molecule h2o {
0 1
O 0.0000000000 0.0000000000 0.0000000000
H 0.0000000000 0.0000000000 1.3000000000
H 0.0000000000 0.4788282007 -1.3155696691
}

set basis 6-31g

gradient('mp2')
--------------------------------------------------------------------------

    Molecular point group: cs
  Charge       = 0
  Multiplicity = 1
  Basis Set: 6-31G
    Blend: 6-31G
  Basis Set: (6-31G AUX)
    Blend: CC-PVDZ-JKFIT

    Orbital Energies (a.u.)
    -----------------------

    Doubly Occupied:

       1Ap   -20.539646     2Ap    -1.170455     3Ap    -0.546025
       1App   -0.434822     4Ap    -0.423274

  @DF-RHF Final Energy:   -75.77755163513740

   => Energetics <=

    Nuclear Repulsion Energy =              6.4793556937981105
    One-Electron Energy =                -118.2853691752914358
    Two-Electron Energy =                  36.0284618463559241
    Total Energy =                        -75.7775516351373994
  Basis Set: (6-31G AUX)
    Blend: CC-PVDZ-RI
    Molecular point group: cs

    Geometry (in Angstrom), charge = 0, multiplicity = 1:

       Center              X                  Y                   Z               Mass
    ------------   -----------------  -----------------  -----------------  -----------------
           O          0.026793998700    -0.000871238772     0.000000000000    15.994914619560
           H          0.026793998700    -1.300871238772     0.000000000000     1.007825032070
           H         -0.452034202000     1.314698430328     0.000000000000     1.007825032070

  Basis Set: 6-31G
    Blend: 6-31G
  Basis Set: (6-31G AUX)
    Blend: CC-PVDZ-JKFIT
  Basis Set: (6-31G AUX)
    Blend: CC-PVDZ-JKFIT
	 Reference Energy          =     -75.7775516351373994 [Eh]
	 Singles Energy            =      -0.0000000000000000 [Eh]
	 Same-Spin Energy          =      -0.0356017764372398 [Eh]
	 Opposite-Spin Energy      =      -0.1173316122051451 [Eh]
	 Correlation Energy        =      -0.1529333886423848 [Eh]
	 Total Energy              =     -75.9304850237797808 [Eh]

	 ================> DF-SCS-MP2 Energies <==================
	-----------------------------------------------------------
	 SCS Same-Spin Scale       =       0.3333333333333333 [-]
	 SCS Opposite-Spin Scale   =       1.2000000000000000 [-]
	 SCS Same-Spin Energy      =      -0.0118672588124133 [Eh]
	 SCS Opposite-Spin Energy  =      -0.1407979346461741 [Eh]
	 SCS Correlation Energy    =      -0.1526651934585873 [Eh]
	 SCS Total Energy          =     -75.9302168285959880 [Eh]
	-----------------------------------------------------------

  -Total Gradient:
     Atom            X                  Y                   Z
    ------   -----------------  -----------------  -----------------
       1       -0.043247829545    -0.006646814321    -0.000000000000
       2        0.043434190286    -0.111787350821     0.000000000000
       3       -0.000186360741     0.118434165142     0.000000000000

*** Psi4 exiting successfully. Buy a developer a beer!
