                               Psi4 1.2a1.dev429

  ==> Input File <==

--------------------------------------------------------------------------
# density-fitted hartree fock energies and gradients with 6-31g
molecule h2o {
0 1
O 0.0000000000 0.0000000000 0.0000000000
H 0.0000000000 0.0000000000 1.5000000000
H 0.0000000000 0.4104241720 -1.1276311449
}

set basis 6-31g

gradient('mp2')
--------------------------------------------------------------------------

    Molecular point group: cs
  Charge       = 0
  Multiplicity = 1
  Basis Set: 6-31G
    Blend: 6-31G
  Basis Set: (6-31G AUX)
    Blend: CC-PVDZ-JKFIT

    Orbital Energies (a.u.)
    -----------------------

    Doubly Occupied:

       1Ap   -20.537545     2Ap    -1.176814     3Ap    -0.550924
       1App   -0.435182     4Ap    -0.420366

  @DF-RHF Final Energy:   -75.77640392981603

   => Energetics <=

    Nuclear Repulsion Energy =              6.5491033634626366
    One-Electron Energy =                -118.4093512474416627
    Two-Electron Energy =                  36.0838439541630009
    Total Energy =                        -75.7764039298160270
  Basis Set: (6-31G AUX)
    Blend: CC-PVDZ-RI
    Molecular point group: cs

    Geometry (in Angstrom), charge = 0, multiplicity = 1:

       Center              X                  Y                   Z               Mass
    ------------   -----------------  -----------------  -----------------  -----------------
           O          0.022966284599     0.020836806615     0.000000000000    15.994914619560
           H          0.022966284599    -1.479163193385     0.000000000000     1.007825032070
           H         -0.387457887401     1.148467951515     0.000000000000     1.007825032070

  Basis Set: 6-31G
    Blend: 6-31G
  Basis Set: (6-31G AUX)
    Blend: CC-PVDZ-JKFIT
  Basis Set: (6-31G AUX)
    Blend: CC-PVDZ-JKFIT
	 Reference Energy          =     -75.7764039298160270 [Eh]
	 Singles Energy            =      -0.0000000000000000 [Eh]
	 Same-Spin Energy          =      -0.0356668695595674 [Eh]
	 Opposite-Spin Energy      =      -0.1183573624112801 [Eh]
	 Correlation Energy        =      -0.1540242319708474 [Eh]
	 Total Energy              =     -75.9304281617868781 [Eh]

	 ================> DF-SCS-MP2 Energies <==================
	-----------------------------------------------------------
	 SCS Same-Spin Scale       =       0.3333333333333333 [-]
	 SCS Opposite-Spin Scale   =       1.2000000000000000 [-]
	 SCS Same-Spin Energy      =      -0.0118889565198558 [Eh]
	 SCS Opposite-Spin Energy  =      -0.1420288348935361 [Eh]
	 SCS Correlation Energy    =      -0.1539177914133919 [Eh]
	 SCS Total Energy          =     -75.9303217212294186 [Eh]
	-----------------------------------------------------------

  -Total Gradient:
     Atom            X                  Y                   Z
    ------   -----------------  -----------------  -----------------
       1       -0.048326055775    -0.007950315376     0.000000000000
       2        0.038279721286    -0.104350626435    -0.000000000000
       3        0.010046334489     0.112300941812    -0.000000000000

*** Psi4 exiting successfully. Buy a developer a beer!
