                               Psi4 1.2a1.dev429

  ==> Input File <==

--------------------------------------------------------------------------
# density-fitted hartree fock energies and gradients with 6-31g
molecule h20 {
0 1
O 0.0000000000 0.0000000000 0.0000000000
H 0.0000000000 0.0000000000 1.0000000000
H 0.0000000000 0.0000000000 -1.2000000000
}

set basis 6-31g

gradient('hf')
--------------------------------------------------------------------------

    Molecular point group: c2v
  Charge       = 0
  Multiplicity = 1
  Basis Set: 6-31G
    Blend: 6-31G
  Basis Set: (6-31G AUX)
    Blend: CC-PVDZ-JKFIT

    Orbital Energies (a.u.)
    -----------------------

    Doubly Occupied:

       1A1   -20.504004     2A1    -1.229440     3A1    -0.666365
       1B1    -0.439908     1B2    -0.439908

  @DF-RHF Final Energy:   -75.88597808979489

   => Energetics <=

    Nuclear Repulsion Energy =              8.0018008208003035
    One-Electron Energy =                -121.2163068876463399
    Two-Electron Energy =                  37.3285279770511522
    Total Energy =                        -75.8859780897948895
    Molecular point group: c2v

    Geometry (in Angstrom), charge = 0, multiplicity = 1:

       Center              X                  Y                   Z               Mass
    ------------   -----------------  -----------------  -----------------  -----------------
           O          0.000000000000     0.000000000000     0.011191487327    15.994914619560
           H          0.000000000000     0.000000000000     1.011191487327     1.007825032070
           H          0.000000000000     0.000000000000    -1.188808512673     1.007825032070

  Basis Set: 6-31G
    Blend: 6-31G
  Basis Set: (6-31G AUX)
    Blend: CC-PVDZ-JKFIT

  -Total Gradient:
     Atom            X                  Y                   Z
    ------   -----------------  -----------------  -----------------
       1        0.000000000000     0.000000000000     0.090636511689
       2        0.000000000000     0.000000000000     0.063167957374
       3        0.000000000000    -0.000000000000    -0.153804469064

*** Psi4 exiting successfully. Buy a developer a beer!
