                               Psi4 1.2a1.dev429

  ==> Input File <==

--------------------------------------------------------------------------
# density-fitted hartree fock energies and gradients with 6-31g
molecule h2o {
0 1
O 0.0000000000 0.0000000000 0.0000000000
H 0.0000000000 0.0000000000 1.3000000000
H 0.0000000000 0.8356238926 -0.9958577761
}

set basis 6-31g

gradient('mp2')
--------------------------------------------------------------------------

    Molecular point group: c2v
  Charge       = 0
  Multiplicity = 1
  Basis Set: 6-31G
    Blend: 6-31G
  Basis Set: (6-31G AUX)
    Blend: CC-PVDZ-JKFIT

    Orbital Energies (a.u.)
    -----------------------

    Doubly Occupied:

       1A1   -20.575477     2A1    -1.207024     1B2    -0.573344
       1B1    -0.464111     3A1    -0.454433

  @DF-RHF Final Energy:   -75.83122160159212

   => Energetics <=

    Nuclear Repulsion Energy =              6.7295420375747579
    One-Electron Energy =                -118.5727497605267331
    Two-Electron Energy =                  36.0119861213598611
    Total Energy =                        -75.8312216015921194
  Basis Set: (6-31G AUX)
    Blend: CC-PVDZ-RI
    Molecular point group: c2v

    Geometry (in Angstrom), charge = 0, multiplicity = 1:

       Center              X                  Y                   Z               Mass
    ------------   -----------------  -----------------  -----------------  -----------------
           O          0.000000000000     0.000000000000    -0.049760283295    15.994914619560
           H          0.000000000000    -1.221600407044     0.394865903024     1.007825032070
           H         -0.000000000000     1.221600407044     0.394865903024     1.007825032070

  Basis Set: 6-31G
    Blend: 6-31G
  Basis Set: (6-31G AUX)
    Blend: CC-PVDZ-JKFIT
  Basis Set: (6-31G AUX)
    Blend: CC-PVDZ-JKFIT
	 Reference Energy          =     -75.8312216015921194 [Eh]
	 Singles Energy            =      -0.0000000000000000 [Eh]
	 Same-Spin Energy          =      -0.0357583710698533 [Eh]
	 Opposite-Spin Energy      =      -0.1198632111272198 [Eh]
	 Correlation Energy        =      -0.1556215821970731 [Eh]
	 Total Energy              =     -75.9868431837891904 [Eh]

	 ================> DF-SCS-MP2 Energies <==================
	-----------------------------------------------------------
	 SCS Same-Spin Scale       =       0.3333333333333333 [-]
	 SCS Opposite-Spin Scale   =       1.2000000000000000 [-]
	 SCS Same-Spin Energy      =      -0.0119194570232844 [Eh]
	 SCS Opposite-Spin Energy  =      -0.1438358533526638 [Eh]
	 SCS Correlation Energy    =      -0.1557553103759482 [Eh]
	 SCS Total Energy          =     -75.9869769119680711 [Eh]
	-----------------------------------------------------------

  -Total Gradient:
     Atom            X                  Y                   Z
    ------   -----------------  -----------------  -----------------
       1       -0.000000000000    -0.000000000004    -0.002827113490
       2        0.000000000000    -0.113770447016     0.001413556745
       3        0.000000000000     0.113770447020     0.001413556746

*** Psi4 exiting successfully. Buy a developer a beer!
