                               Psi4 1.2a1.dev429

  ==> Input File <==

--------------------------------------------------------------------------
# density-fitted hartree fock energies and gradients with 6-31g
molecule h20 {
0 1
O 0.0000000000 0.0000000000 0.0000000000
H 0.0000000000 0.0000000000 0.8000000000
H 0.0000000000 0.7713451316 -0.9192533317
}

set basis 6-31g

gradient('hf')
--------------------------------------------------------------------------

    Molecular point group: cs
  Charge       = 0
  Multiplicity = 1
  Basis Set: 6-31G
    Blend: 6-31G
  Basis Set: (6-31G AUX)
    Blend: CC-PVDZ-JKFIT

    Orbital Energies (a.u.)
    -----------------------

    Doubly Occupied:

       1Ap   -20.528056     2Ap    -1.334257     3Ap    -0.724949
       4Ap    -0.487545     1App   -0.477716

  @DF-RHF Final Energy:   -75.88936733300086

   => Energetics <=

    Nuclear Repulsion Energy =              9.1004463925304879
    One-Electron Energy =                -122.8745793303468616
    Two-Electron Energy =                  37.8847656048155059
    Total Energy =                        -75.8893673330008767
    Molecular point group: cs

    Geometry (in Angstrom), charge = 0, multiplicity = 1:

       Center              X                  Y                   Z               Mass
    ------------   -----------------  -----------------  -----------------  -----------------
           O          0.043162496326    -0.006673110752     0.000000000000    15.994914619560
           H          0.043162496326    -0.806673110752     0.000000000000     1.007825032070
           H         -0.728182635274     0.912580220948     0.000000000000     1.007825032070

  Basis Set: 6-31G
    Blend: 6-31G
  Basis Set: (6-31G AUX)
    Blend: CC-PVDZ-JKFIT

  -Total Gradient:
     Atom            X                  Y                   Z
    ------   -----------------  -----------------  -----------------
       1        0.032989881404    -0.417993549873     0.000000000000
       2        0.040630734525     0.288115784289     0.000000000000
       3       -0.073620615929     0.129877765584     0.000000000000

*** Psi4 exiting successfully. Buy a developer a beer!
