                               Psi4 1.2a1.dev429

  ==> Input File <==

--------------------------------------------------------------------------
# density-fitted hartree fock energies and gradients with 6-31g
molecule o2 {
0 3
O 0.0000000000 0.0000000000 0.0000000000
O 0.0000000000 0.0000000000 1.3515151515
}

set basis 6-31g
set reference rohf

gradient('scf')
--------------------------------------------------------------------------

    Molecular point group: d2h
  Charge       = 0
  Multiplicity = 3
  Basis Set: 6-31G
    Blend: 6-31G
  Basis Set: (6-31G AUX)
    Blend: CC-PVDZ-JKFIT

    Orbital Energies (a.u.)
    -----------------------

    Doubly Occupied:

       1Ag   -20.771797     1B1u  -20.771277     2Ag    -1.569604
       2B1u   -1.150375     3Ag    -0.682359     1B3u   -0.664741
       1B2u   -0.664741

    Singly Occupied:

       1B2g   -0.278336     1B3g   -0.278336

  @DF-ROHF Final Energy:  -149.49647377762372

   => Energetics <=

    Nuclear Repulsion Energy =             25.0587951693858528
    One-Electron Energy =                -255.3717982009663103
    Two-Electron Energy =                  80.8165292539567304
    Total Energy =                       -149.4964737776237200
    Molecular point group: d2h

    Geometry (in Angstrom), charge = 0, multiplicity = 3:

       Center              X                  Y                   Z               Mass
    ------------   -----------------  -----------------  -----------------  -----------------
           O          0.000000000000     0.000000000000    -0.675757575750    15.994914619560
           O          0.000000000000     0.000000000000     0.675757575750    15.994914619560

  Basis Set: 6-31G
    Blend: 6-31G
  Basis Set: (6-31G AUX)
    Blend: CC-PVDZ-JKFIT

  -Total Gradient:
     Atom            X                  Y                   Z
    ------   -----------------  -----------------  -----------------
       1        0.000000000000    -0.000000000000    -0.172615649159
       2        0.000000000000     0.000000000000     0.172615649159

*** Psi4 exiting successfully. Buy a developer a beer!
