                               Psi4 1.2a1.dev429

  ==> Input File <==

--------------------------------------------------------------------------
# density-fitted hartree fock energies and gradients with 6-31g
molecule h2o {
0 1
O 0.0000000000 0.0000000000 0.0000000000
H 0.0000000000 0.0000000000 0.8000000000
H 0.0000000000 0.1736481777 -0.9848077530
}

set basis 6-31g

gradient('mp2')
--------------------------------------------------------------------------

    Molecular point group: cs
  Charge       = 0
  Multiplicity = 1
  Basis Set: 6-31G
    Blend: 6-31G
  Basis Set: (6-31G AUX)
    Blend: CC-PVDZ-JKFIT

    Orbital Energies (a.u.)
    -----------------------

    Doubly Occupied:

       1Ap   -20.501415     2Ap    -1.337718     3Ap    -0.807808
       4Ap    -0.478103     1App   -0.477100

  @DF-RHF Final Energy:   -75.91270850224588

   => Energetics <=

    Nuclear Repulsion Energy =              9.8202861340762286
    One-Electron Energy =                -124.2617028110350645
    Two-Electron Energy =                  38.5287081747129676
    Total Energy =                        -75.9127085022458630
  Basis Set: (6-31G AUX)
    Blend: CC-PVDZ-RI
    Molecular point group: cs

    Geometry (in Angstrom), charge = 0, multiplicity = 1:

       Center              X                  Y                   Z               Mass
    ------------   -----------------  -----------------  -----------------  -----------------
           O          0.009716906901    -0.010341368128     0.000000000000    15.994914619560
           H          0.009716906901    -0.810341368128     0.000000000000     1.007825032070
           H         -0.163931270799     0.974466384872     0.000000000000     1.007825032070

  Basis Set: 6-31G
    Blend: 6-31G
  Basis Set: (6-31G AUX)
    Blend: CC-PVDZ-JKFIT
  Basis Set: (6-31G AUX)
    Blend: CC-PVDZ-JKFIT
	 Reference Energy          =     -75.9127085022458772 [Eh]
	 Singles Energy            =      -0.0000000000000000 [Eh]
	 Same-Spin Energy          =      -0.0292502764588435 [Eh]
	 Opposite-Spin Energy      =      -0.0920866927345980 [Eh]
	 Correlation Energy        =      -0.1213369691934414 [Eh]
	 Total Energy              =     -76.0340454714393132 [Eh]

	 ================> DF-SCS-MP2 Energies <==================
	-----------------------------------------------------------
	 SCS Same-Spin Scale       =       0.3333333333333333 [-]
	 SCS Opposite-Spin Scale   =       1.2000000000000000 [-]
	 SCS Same-Spin Energy      =      -0.0097500921529478 [Eh]
	 SCS Opposite-Spin Energy  =      -0.1105040312815176 [Eh]
	 SCS Correlation Energy    =      -0.1202541234344654 [Eh]
	 SCS Total Energy          =     -76.0329626256803408 [Eh]
	-----------------------------------------------------------

  -Total Gradient:
     Atom            X                  Y                   Z
    ------   -----------------  -----------------  -----------------
       1       -0.016059789797    -0.354890521788    -0.000000000000
       2        0.015403526556     0.287648077885     0.000000000000
       3        0.000656263241     0.067242443903     0.000000000000

*** Psi4 exiting successfully. Buy a developer a beer!
