                               Psi4 1.2a1.dev429

  ==> Input File <==

--------------------------------------------------------------------------
# density-fitted hartree fock energies and gradients with 6-31g
molecule h2o {
0 1
O 0.0000000000 0.0000000000 0.0000000000
H 0.0000000000 0.0000000000 0.9000000000
H 0.0000000000 0.6128355545 -0.5142300877
}

set basis 6-31g

gradient('mp2')
--------------------------------------------------------------------------

    Molecular point group: cs
  Charge       = 0
  Multiplicity = 1
  Basis Set: 6-31G
    Blend: 6-31G
  Basis Set: (6-31G AUX)
    Blend: CC-PVDZ-JKFIT

    Orbital Energies (a.u.)
    -----------------------

    Doubly Occupied:

       1Ap   -20.522329     2Ap    -1.393812     3Ap    -0.821393
       4Ap    -0.530388     1App   -0.499591

  @DF-RHF Final Energy:   -75.94488885413743

   => Energetics <=

    Nuclear Repulsion Energy =             10.3389006224006224
    One-Electron Energy =                -125.0325523382094133
    Two-Electron Energy =                  38.7487628616713522
    Total Energy =                        -75.9448888541374316
  Basis Set: (6-31G AUX)
    Blend: CC-PVDZ-RI
    Molecular point group: cs

    Geometry (in Angstrom), charge = 0, multiplicity = 1:

       Center              X                  Y                   Z               Mass
    ------------   -----------------  -----------------  -----------------  -----------------
           O          0.034292706709     0.021586695424     0.000000000000    15.994914619560
           H          0.034292706709    -0.878413304576     0.000000000000     1.007825032070
           H         -0.578542847791     0.535816783124     0.000000000000     1.007825032070

  Basis Set: 6-31G
    Blend: 6-31G
  Basis Set: (6-31G AUX)
    Blend: CC-PVDZ-JKFIT
  Basis Set: (6-31G AUX)
    Blend: CC-PVDZ-JKFIT
	 Reference Energy          =     -75.9448888541374316 [Eh]
	 Singles Energy            =      -0.0000000000000000 [Eh]
	 Same-Spin Energy          =      -0.0283785404912564 [Eh]
	 Opposite-Spin Energy      =      -0.0903852143291477 [Eh]
	 Correlation Energy        =      -0.1187637548204041 [Eh]
	 Total Energy              =     -76.0636526089578382 [Eh]

	 ================> DF-SCS-MP2 Energies <==================
	-----------------------------------------------------------
	 SCS Same-Spin Scale       =       0.3333333333333333 [-]
	 SCS Opposite-Spin Scale   =       1.2000000000000000 [-]
	 SCS Same-Spin Energy      =      -0.0094595134970855 [Eh]
	 SCS Opposite-Spin Energy  =      -0.1084622571949772 [Eh]
	 SCS Correlation Energy    =      -0.1179217706920627 [Eh]
	 SCS Total Energy          =     -76.0628106248294955 [Eh]
	-----------------------------------------------------------

  -Total Gradient:
     Atom            X                  Y                   Z
    ------   -----------------  -----------------  -----------------
       1       -0.263243091041     0.108431260671    -0.000000000000
       2        0.018066761771     0.070763564094     0.000000000000
       3        0.245176329271    -0.179194824764     0.000000000000

*** Psi4 exiting successfully. Buy a developer a beer!
