                               Psi4 1.2a1.dev429

  ==> Input File <==

--------------------------------------------------------------------------
# density-fitted hartree fock energies and gradients with 6-31g
molecule h20 {
0 1
O 0.0000000000 0.0000000000 0.0000000000
H 0.0000000000 0.0000000000 1.1000000000
H 0.0000000000 0.3500000000 -0.6062177826
}

set basis 6-31g

gradient('hf')
--------------------------------------------------------------------------

    Molecular point group: cs
  Charge       = 0
  Multiplicity = 1
  Basis Set: 6-31G
    Blend: 6-31G
  Basis Set: (6-31G AUX)
    Blend: CC-PVDZ-JKFIT

    Orbital Energies (a.u.)
    -----------------------

    Doubly Occupied:

       1Ap   -20.508733     2Ap    -1.385094     3Ap    -0.792546
       4Ap    -0.491892     1App   -0.483962

  @DF-RHF Final Energy:   -75.81547804475439

   => Energetics <=

    Nuclear Repulsion Energy =             10.2001210093747865
    One-Electron Energy =                -124.7067466565680007
    Two-Electron Energy =                  38.6911476024388463
    Total Energy =                        -75.8154780447543715
    Molecular point group: cs

    Geometry (in Angstrom), charge = 0, multiplicity = 1:

       Center              X                  Y                   Z               Mass
    ------------   -----------------  -----------------  -----------------  -----------------
           O          0.019585102823     0.027630787142     0.000000000000    15.994914619560
           H          0.019585102823    -1.072369212858     0.000000000000     1.007825032070
           H         -0.330414897177     0.633848569742     0.000000000000     1.007825032070

  Basis Set: 6-31G
    Blend: 6-31G
  Basis Set: (6-31G AUX)
    Blend: CC-PVDZ-JKFIT

  -Total Gradient:
     Atom            X                  Y                   Z
    ------   -----------------  -----------------  -----------------
       1       -0.419211014586     0.743117661067     0.000000000000
       2        0.024292068656    -0.135444483459     0.000000000000
       3        0.394918945929    -0.607673177609     0.000000000000

*** Psi4 exiting successfully. Buy a developer a beer!
