                               Psi4 1.2a1.dev429

  ==> Input File <==

--------------------------------------------------------------------------
# density-fitted hartree fock energies and gradients with 6-31g
molecule h20 {
0 1
O 0.0000000000 0.0000000000 0.0000000000
H 0.0000000000 0.0000000000 0.9000000000
H 0.0000000000 0.5362311102 -0.4499513268
}

set basis 6-31g

gradient('hf')
--------------------------------------------------------------------------

    Molecular point group: cs
  Charge       = 0
  Multiplicity = 1
  Basis Set: 6-31G
    Blend: 6-31G
  Basis Set: (6-31G AUX)
    Blend: CC-PVDZ-JKFIT

    Orbital Energies (a.u.)
    -----------------------

    Doubly Occupied:

       1Ap   -20.515905     2Ap    -1.439082     3Ap    -0.857295
       4Ap    -0.538368     1App   -0.506924

  @DF-RHF Final Energy:   -75.85466973034326

   => Energetics <=

    Nuclear Repulsion Energy =             11.1158451138891774
    One-Electron Energy =                -126.2258821737977712
    Two-Electron Energy =                  39.2553673295653169
    Total Energy =                        -75.8546697303432751
    Molecular point group: cs

    Geometry (in Angstrom), charge = 0, multiplicity = 1:

       Center              X                  Y                   Z               Mass
    ------------   -----------------  -----------------  -----------------  -----------------
           O          0.030006118371     0.025183570114     0.000000000000    15.994914619560
           H          0.030006118371    -0.874816429886     0.000000000000     1.007825032070
           H         -0.506224991829     0.475134896914     0.000000000000     1.007825032070

  Basis Set: 6-31G
    Blend: 6-31G
  Basis Set: (6-31G AUX)
    Blend: CC-PVDZ-JKFIT

  -Total Gradient:
     Atom            X                  Y                   Z
    ------   -----------------  -----------------  -----------------
       1       -0.580569238221     0.405880172071     0.000000000000
       2        0.014324043474     0.045214761809     0.000000000000
       3        0.566245194747    -0.451094933880     0.000000000000

*** Psi4 exiting successfully. Buy a developer a beer!
