                               Psi4 1.2a1.dev429

  ==> Input File <==

--------------------------------------------------------------------------
# density-fitted hartree fock energies and gradients with 6-31g
molecule h2o {
0 1
O 0.0000000000 0.0000000000 0.0000000000
H 0.0000000000 0.0000000000 1.5000000000
H 0.0000000000 0.2257426310 -1.2802500789
}

set basis 6-31g

gradient('mp2')
--------------------------------------------------------------------------

    Molecular point group: cs
  Charge       = 0
  Multiplicity = 1
  Basis Set: 6-31G
    Blend: 6-31G
  Basis Set: (6-31G AUX)
    Blend: CC-PVDZ-JKFIT

    Orbital Energies (a.u.)
    -----------------------

    Doubly Occupied:

       1Ap   -20.519037     2Ap    -1.148151     3Ap    -0.519801
       1App   -0.417119     4Ap    -0.410435

  @DF-RHF Final Energy:   -75.74074934399532

   => Energetics <=

    Nuclear Repulsion Energy =              6.2684636497587025
    One-Electron Energy =                -117.9893383260636028
    Two-Electron Energy =                  35.9801253323095693
    Total Energy =                        -75.7407493439953328
  Basis Set: (6-31G AUX)
    Blend: CC-PVDZ-RI
    Molecular point group: cs

    Geometry (in Angstrom), charge = 0, multiplicity = 1:

       Center              X                  Y                   Z               Mass
    ------------   -----------------  -----------------  -----------------  -----------------
           O          0.012631978970     0.012296642286     0.000000000000    15.994914619560
           H          0.012631978970    -1.487703357714     0.000000000000     1.007825032070
           H         -0.213110652030     1.292546721186     0.000000000000     1.007825032070

  Basis Set: 6-31G
    Blend: 6-31G
  Basis Set: (6-31G AUX)
    Blend: CC-PVDZ-JKFIT
  Basis Set: (6-31G AUX)
    Blend: CC-PVDZ-JKFIT
	 Reference Energy          =     -75.7407493439953186 [Eh]
	 Singles Energy            =      -0.0000000000000000 [Eh]
	 Same-Spin Energy          =      -0.0352455293373067 [Eh]
	 Opposite-Spin Energy      =      -0.1155241536082596 [Eh]
	 Correlation Energy        =      -0.1507696829455663 [Eh]
	 Total Energy              =     -75.8915190269408839 [Eh]

	 ================> DF-SCS-MP2 Energies <==================
	-----------------------------------------------------------
	 SCS Same-Spin Scale       =       0.3333333333333333 [-]
	 SCS Opposite-Spin Scale   =       1.2000000000000000 [-]
	 SCS Same-Spin Energy      =      -0.0117485097791022 [Eh]
	 SCS Opposite-Spin Energy  =      -0.1386289843299115 [Eh]
	 SCS Correlation Energy    =      -0.1503774941090137 [Eh]
	 SCS Total Energy          =     -75.8911268381043271 [Eh]
	-----------------------------------------------------------

  -Total Gradient:
     Atom            X                  Y                   Z
    ------   -----------------  -----------------  -----------------
       1       -0.050271985417    -0.008282216803     0.000000000000
       2        0.032898832782    -0.111793773512     0.000000000000
       3        0.017373152635     0.120075990314    -0.000000000000

*** Psi4 exiting successfully. Buy a developer a beer!
