                               Psi4 1.2a1.dev429

  ==> Input File <==

--------------------------------------------------------------------------
# density-fitted hartree fock energies and gradients with 6-31g
molecule h2o {
0 1
O 0.0000000000 0.0000000000 0.0000000000
H 0.0000000000 0.0000000000 1.1000000000
H 0.0000000000 0.4000000000 -0.6928203230
}

set basis 6-31g

gradient('mp2')
--------------------------------------------------------------------------

    Molecular point group: cs
  Charge       = 0
  Multiplicity = 1
  Basis Set: 6-31G
    Blend: 6-31G
  Basis Set: (6-31G AUX)
    Blend: CC-PVDZ-JKFIT

    Orbital Energies (a.u.)
    -----------------------

    Doubly Occupied:

       1Ap   -20.514901     2Ap    -1.334960     3Ap    -0.761764
       4Ap    -0.484014     1App   -0.476442

  @DF-RHF Final Energy:   -75.90564911563399

   => Energetics <=

    Nuclear Repulsion Energy =              9.4284151347103222
    One-Electron Energy =                -123.5239672078955095
    Two-Electron Energy =                  38.1899029575512046
    Total Energy =                        -75.9056491156339916
  Basis Set: (6-31G AUX)
    Blend: CC-PVDZ-RI
    Molecular point group: cs

    Geometry (in Angstrom), charge = 0, multiplicity = 1:

       Center              X                  Y                   Z               Mass
    ------------   -----------------  -----------------  -----------------  -----------------
           O          0.022382974654     0.022784730975     0.000000000000    15.994914619560
           H          0.022382974654    -1.077215269025     0.000000000000     1.007825032070
           H         -0.377617025346     0.715605053975     0.000000000000     1.007825032070

  Basis Set: 6-31G
    Blend: 6-31G
  Basis Set: (6-31G AUX)
    Blend: CC-PVDZ-JKFIT
  Basis Set: (6-31G AUX)
    Blend: CC-PVDZ-JKFIT
	 Reference Energy          =     -75.9056491156339916 [Eh]
	 Singles Energy            =      -0.0000000000000000 [Eh]
	 Same-Spin Energy          =      -0.0301970970879034 [Eh]
	 Opposite-Spin Energy      =      -0.0955386250861612 [Eh]
	 Correlation Energy        =      -0.1257357221740645 [Eh]
	 Total Energy              =     -76.0313848378080621 [Eh]

	 ================> DF-SCS-MP2 Energies <==================
	-----------------------------------------------------------
	 SCS Same-Spin Scale       =       0.3333333333333333 [-]
	 SCS Opposite-Spin Scale   =       1.2000000000000000 [-]
	 SCS Same-Spin Energy      =      -0.0100656990293011 [Eh]
	 SCS Opposite-Spin Energy  =      -0.1146463501033934 [Eh]
	 SCS Correlation Energy    =      -0.1247120491326945 [Eh]
	 SCS Total Energy          =     -76.0303611647666884 [Eh]
	-----------------------------------------------------------

  -Total Gradient:
     Atom            X                  Y                   Z
    ------   -----------------  -----------------  -----------------
       1       -0.211117479619     0.353141874351     0.000000000000
       2        0.027742887206    -0.111820702508    -0.000000000000
       3        0.183374592413    -0.241321171843     0.000000000000

*** Psi4 exiting successfully. Buy a developer a beer!
