                               Psi4 1.2a1.dev429

  ==> Input File <==

--------------------------------------------------------------------------
# density-fitted hartree fock energies and gradients with 6-31g
molecule h2o {
0 1
O 0.0000000000 0.0000000000 0.0000000000
H 0.0000000000 0.0000000000 1.2000000000
H 0.0000000000 1.3155696691 -0.4788282007
}

set basis 6-31g

gradient('mp2')
--------------------------------------------------------------------------

    Molecular point group: cs
  Charge       = 0
  Multiplicity = 1
  Basis Set: 6-31G
    Blend: 6-31G
  Basis Set: (6-31G AUX)
    Blend: CC-PVDZ-JKFIT

    Orbital Energies (a.u.)
    -----------------------

    Doubly Occupied:

       1Ap   -20.614891     2Ap    -1.241230     3Ap    -0.572736
       4Ap    -0.494821     1App   -0.493037

  @DF-RHF Final Energy:   -75.85999590201546

   => Energetics <=

    Nuclear Repulsion Energy =              6.7998220706402082
    One-Electron Energy =                -118.4862074018186320
    Two-Electron Energy =                  35.8263894291629654
    Total Energy =                        -75.8599959020154699
  Basis Set: (6-31G AUX)
    Blend: CC-PVDZ-RI
    Molecular point group: cs

    Geometry (in Angstrom), charge = 0, multiplicity = 1:

       Center              X                  Y                   Z               Mass
    ------------   -----------------  -----------------  -----------------  -----------------
           O          0.073615906399     0.040354925263     0.000000000000    15.994914619560
           H          0.073615906399    -1.159645074737     0.000000000000     1.007825032070
           H         -1.241953762701     0.519183125963     0.000000000000     1.007825032070

  Basis Set: 6-31G
    Blend: 6-31G
  Basis Set: (6-31G AUX)
    Blend: CC-PVDZ-JKFIT
  Basis Set: (6-31G AUX)
    Blend: CC-PVDZ-JKFIT
	 Reference Energy          =     -75.8599959020154557 [Eh]
	 Singles Energy            =      -0.0000000000000000 [Eh]
	 Same-Spin Energy          =      -0.0363758061360762 [Eh]
	 Opposite-Spin Energy      =      -0.1245893195400866 [Eh]
	 Correlation Energy        =      -0.1609651256761628 [Eh]
	 Total Energy              =     -76.0209610276916123 [Eh]

	 ================> DF-SCS-MP2 Energies <==================
	-----------------------------------------------------------
	 SCS Same-Spin Scale       =       0.3333333333333333 [-]
	 SCS Opposite-Spin Scale   =       1.2000000000000000 [-]
	 SCS Same-Spin Energy      =      -0.0121252687120254 [Eh]
	 SCS Opposite-Spin Energy  =      -0.1495071834481039 [Eh]
	 SCS Correlation Energy    =      -0.1616324521601293 [Eh]
	 SCS Total Energy          =     -76.0216283541755899 [Eh]
	-----------------------------------------------------------

  -Total Gradient:
     Atom            X                  Y                   Z
    ------   -----------------  -----------------  -----------------
       1        0.076811488380     0.042634966208    -0.000000000000
       2        0.016449986555    -0.091584260207     0.000000000000
       3       -0.093261474935     0.048949293999     0.000000000000

*** Psi4 exiting successfully. Buy a developer a beer!
