                               Psi4 1.3.1 release

  ==> Input File <==

--------------------------------------------------------------------------
# density fitted hartree fock
molecule h2o {
0 1
H 0.0000000000 0.0000000000 1.1000000000
H 0.0000000000 1.0033514461 -0.3094929331
O 0.0000000000 0.0000000000 0.0000000000
}

set basis 6-31g
energy('hf')

--------------------------------------------------------------------------

    Molecular point group: cs

    Geometry (in Angstrom), charge = 0, multiplicity = 1:

       Center              X                  Y                   Z               Mass
    ------------   -----------------  -----------------  -----------------  -----------------
         H            0.056144974977    -1.055765250887     0.000000000000     1.007825032230
         H           -0.947206471123     0.353727682213     0.000000000000     1.007825032230
         O            0.056144974977     0.044234749113     0.000000000000    15.994914619570

  Charge       = 0
  Multiplicity = 1
  Basis Set: 6-31G
    Blend: 6-31G
  Basis Set: (6-31G AUX)
    Blend: CC-PVDZ-JKFIT

    Orbital Energies [Eh]
    ---------------------

    Doubly Occupied:

       1Ap   -20.580969     2Ap    -1.300509     3Ap    -0.653203
       4Ap    -0.537957     1App   -0.495250

  @DF-RHF Final Energy:   -75.96074560341164

   => Energetics <=

    Nuclear Repulsion Energy =              8.1862459266190744
    One-Electron Energy =                -121.1581977139196766
    Two-Electron Energy =                  37.0112061838889588
    Total Energy =                        -75.9607456034116382

  Dipole Moment: [D]
     X:    -2.0912      Y:    -1.5609      Z:     0.0000     Total:     2.6095

*** Psi4 exiting successfully. Buy a developer a beer!
