                               Psi4 1.2.1 release

  ==> Input File <==

--------------------------------------------------------------------------
# density fitted hartree fock
molecule h2o {
0 1
H 0.0000000000 0.0000000000 0.8500000000
H 0.0000000000 0.7852976026 -0.3252809175
O 0.0000000000 0.0000000000 0.0000000000
}

set basis 6-31g
energy('hf')

--------------------------------------------------------------------------

    Molecular point group: c2v

    Geometry (in Angstrom), charge = 0, multiplicity = 1:

       Center              X                  Y                   Z               Mass
    ------------   -----------------  -----------------  -----------------  -----------------
         H            0.000000000000    -0.706749170443     0.419384611667     1.007825032070
         H           -0.000000000000     0.706749170443     0.419384611667     1.007825032070
         O           -0.000000000000     0.000000000000    -0.052850086388    15.994914619560

  Charge       = 0
  Multiplicity = 1
  Basis Set: 6-31G
    Blend: 6-31G
  Basis Set: (6-31G AUX)
    Blend: CC-PVDZ-JKFIT

    Orbital Energies [Eh]
    ---------------------

    Doubly Occupied:

       1A1   -20.534154     2A1    -1.411857     1B2    -0.792417
       3A1    -0.561220     1B1    -0.506152

  @DF-RHF Final Energy:   -75.95908027303938

   => Energetics <=

    Nuclear Repulsion Energy =             10.3353568779920906
    One-Electron Energy =                -124.9772752575524208
    Two-Electron Energy =                  38.6828381065209612
    Total Energy =                        -75.9590802730393762

  Dipole Moment: [D]
     X:    -0.0000      Y:     0.0000      Z:     2.4281     Total:     2.4281

*** Psi4 exiting successfully. Buy a developer a beer!
