                               Psi4 1.2a1.dev429

  ==> Input File <==

--------------------------------------------------------------------------
# density-fitted hartree fock energies and gradients with 6-31g
molecule h20 {
0 1
O 0.0000000000 0.0000000000 0.0000000000
H 0.0000000000 0.0000000000 0.7000000000
H 0.0000000000 1.0832885283 -0.1910129954
}

set basis 6-31g

gradient('hf')
--------------------------------------------------------------------------

    Molecular point group: cs
  Charge       = 0
  Multiplicity = 1
  Basis Set: 6-31G
    Blend: 6-31G
  Basis Set: (6-31G AUX)
    Blend: CC-PVDZ-JKFIT

    Orbital Energies (a.u.)
    -----------------------

    Doubly Occupied:

       1Ap   -20.551903     2Ap    -1.443566     3Ap    -0.738276
       4Ap    -0.569270     1App   -0.511137

  @DF-RHF Final Energy:   -75.83540573718990

   => Energetics <=

    Nuclear Repulsion Energy =             10.2735714933026276
    One-Electron Energy =                -124.5896493586739950
    Two-Electron Energy =                  38.4806721281814674
    Total Energy =                        -75.8354057371899017
    Molecular point group: cs

    Geometry (in Angstrom), charge = 0, multiplicity = 1:

       Center              X                  Y                   Z               Mass
    ------------   -----------------  -----------------  -----------------  -----------------
           O          0.060618049181     0.028481608059     0.000000000000    15.994914619560
           H          0.060618049181    -0.671518391941     0.000000000000     1.007825032070
           H         -1.022670479119     0.219494603459     0.000000000000     1.007825032070

  Basis Set: 6-31G
    Blend: 6-31G
  Basis Set: (6-31G AUX)
    Blend: CC-PVDZ-JKFIT

  -Total Gradient:
     Atom            X                  Y                   Z
    ------   -----------------  -----------------  -----------------
       1        0.129292660028    -0.742395827158     0.000000000000
       2       -0.030201399247     0.744438921897     0.000000000000
       3       -0.099091260781    -0.002043094739     0.000000000000

*** Psi4 exiting successfully. Buy a developer a beer!
