                               Psi4 1.3.1 release

  ==> Input File <==

--------------------------------------------------------------------------
# density fitted MP2
molecule h2o {
0 1
H 0.0000000000 0.0000000000 0.9375000000
H 0.0000000000 0.9055554621 -0.2426428548
O 0.0000000000 0.0000000000 0.0000000000
}

set basis 6-31g
energy('mp2')

--------------------------------------------------------------------------

    Molecular point group: c2v

    Geometry (in Angstrom), charge = 0, multiplicity = 1:

       Center              X                  Y                   Z               Mass
    ------------   -----------------  -----------------  -----------------  -----------------
         H            0.000000000000    -0.743768756516     0.506842472622     1.007825032230
         H           -0.000000000000     0.743768756516     0.506842472622     1.007825032230
         O           -0.000000000000     0.000000000000    -0.063871367051    15.994914619570

  Charge       = 0
  Multiplicity = 1
  Basis Set: 6-31G
    Blend: 6-31G
  Basis Set: (6-31G AUX)
    Blend: CC-PVDZ-JKFIT

    Orbital Energies [Eh]
    ---------------------

    Doubly Occupied:

       1A1   -20.556090     2A1    -1.366702     1B2    -0.722361
       3A1    -0.562599     1B1    -0.502296

  @DF-RHF Final Energy:   -75.98361490442619

   => Energetics <=

    Nuclear Repulsion Energy =              9.3870314762571496
    One-Electron Energy =                -123.3211983536532728
    Two-Electron Energy =                  37.9505519729699401
    Total Energy =                        -75.9836149044261902

  Dipole Moment: [D]
     X:    -0.0000      Y:     0.0000      Z:     2.6137     Total:     2.6137

  Basis Set: (6-31G AUX)
    Blend: CC-PVDZ-RI
	 Reference Energy          =     -75.9836149044261902 [Eh]
	 Singles Energy            =      -0.0000000000000000 [Eh]
	 Same-Spin Energy          =      -0.0297371189158404 [Eh]
	 Opposite-Spin Energy      =      -0.0972104895551714 [Eh]
	 Correlation Energy        =      -0.1269476084710118 [Eh]
	 Total Energy              =     -76.1105625128972036 [Eh]

	 ================> DF-SCS-MP2 Energies <==================
	-----------------------------------------------------------
	 SCS Same-Spin Scale       =       0.3333333333333333 [-]
	 SCS Opposite-Spin Scale   =       1.2000000000000000 [-]
	 SCS Same-Spin Energy      =      -0.0099123729719468 [Eh]
	 SCS Opposite-Spin Energy  =      -0.1166525874662057 [Eh]
	 SCS Correlation Energy    =      -0.1265649604381525 [Eh]
	 SCS Total Energy          =     -76.1101798648643495 [Eh]
	-----------------------------------------------------------

*** Psi4 exiting successfully. Buy a developer a beer!
