                               Psi4 1.2a1.dev429

  ==> Input File <==

--------------------------------------------------------------------------
# density-fitted hartree fock energies and gradients with 6-31g
molecule h20 {
0 1
O 0.0000000000 0.0000000000 0.0000000000
H 0.0000000000 0.0000000000 0.8000000000
H 0.0000000000 1.0336618829 -0.3762221577
}

set basis 6-31g

gradient('hf')
--------------------------------------------------------------------------

    Molecular point group: cs
  Charge       = 0
  Multiplicity = 1
  Basis Set: 6-31G
    Blend: 6-31G
  Basis Set: (6-31G AUX)
    Blend: CC-PVDZ-JKFIT

    Orbital Energies (a.u.)
    -----------------------

    Doubly Occupied:

       1Ap   -20.553021     2Ap    -1.378820     3Ap    -0.726292
       4Ap    -0.546837     1App   -0.500903

  @DF-RHF Final Energy:   -75.93276060964716

   => Energetics <=

    Nuclear Repulsion Energy =              9.4782776829571080
    One-Electron Energy =                -123.4103283279374352
    Two-Electron Energy =                  37.9992900353331606
    Total Energy =                        -75.9327606096471612
    Molecular point group: cs

    Geometry (in Angstrom), charge = 0, multiplicity = 1:

       Center              X                  Y                   Z               Mass
    ------------   -----------------  -----------------  -----------------  -----------------
           O          0.057841069316     0.023713521758     0.000000000000    15.994914619560
           H          0.057841069316    -0.776286478242     0.000000000000     1.007825032070
           H         -0.975820813584     0.399935679458     0.000000000000     1.007825032070

  Basis Set: 6-31G
    Blend: 6-31G
  Basis Set: (6-31G AUX)
    Blend: CC-PVDZ-JKFIT

  -Total Gradient:
     Atom            X                  Y                   Z
    ------   -----------------  -----------------  -----------------
       1        0.099727204559    -0.331838688915     0.000000000000
       2       -0.001170448224     0.296872829166     0.000000000000
       3       -0.098556756335     0.034965859750     0.000000000000

*** Psi4 exiting successfully. Buy a developer a beer!
