                               Psi4 1.2a1.dev429

  ==> Input File <==

--------------------------------------------------------------------------
# density-fitted hartree fock energies and gradients with 6-31g
molecule o2 {
0 3
O 0.0000000000 0.0000000000 0.0000000000
O 0.0000000000 0.0000000000 0.8353535354
}

set basis 6-31g
set reference rohf

gradient('scf')
--------------------------------------------------------------------------

    Molecular point group: d2h
  Charge       = 0
  Multiplicity = 3
  Basis Set: 6-31G
    Blend: 6-31G
  Basis Set: (6-31G AUX)
    Blend: CC-PVDZ-JKFIT

    Orbital Energies (a.u.)
    -----------------------

    Doubly Occupied:

       1Ag   -20.716184     1B1u  -20.705852     2Ag    -2.182411
       1B3u   -0.969109     1B2u   -0.969109     2B1u   -0.954399
       3Ag    -0.830861

    Singly Occupied:

       1B2g    0.000193     1B3g    0.000193

  @DF-ROHF Final Energy:  -148.94354551716151

   => Energetics <=

    Nuclear Repulsion Energy =             40.5425247090658374
    One-Electron Energy =                -283.6607385693664583
    Two-Electron Energy =                  94.1746683431391034
    Total Energy =                       -148.9435455171615104
    Molecular point group: d2h

    Geometry (in Angstrom), charge = 0, multiplicity = 3:

       Center              X                  Y                   Z               Mass
    ------------   -----------------  -----------------  -----------------  -----------------
           O          0.000000000000     0.000000000000    -0.417676767700    15.994914619560
           O          0.000000000000     0.000000000000     0.417676767700    15.994914619560

  Basis Set: 6-31G
    Blend: 6-31G
  Basis Set: (6-31G AUX)
    Blend: CC-PVDZ-JKFIT

  -Total Gradient:
     Atom            X                  Y                   Z
    ------   -----------------  -----------------  -----------------
       1       -0.000000000000     0.000000000000     2.711270830344
       2        0.000000000000     0.000000000000    -2.711270830344

*** Psi4 exiting successfully. Buy a developer a beer!
