                               Psi4 1.2a1.dev429

  ==> Input File <==

--------------------------------------------------------------------------
# density-fitted hartree fock energies and gradients with 6-31g
molecule o2 {
0 3
O 0.0000000000 0.0000000000 0.0000000000
O 0.0000000000 0.0000000000 0.8714285714
}

set basis 6-31g
set reference rohf

energy('scf')
--------------------------------------------------------------------------

    Molecular point group: d2h

    Geometry (in Angstrom), charge = 0, multiplicity = 3:

       Center              X                  Y                   Z               Mass
    ------------   -----------------  -----------------  -----------------  -----------------
           O          0.000000000000     0.000000000000    -0.435714285700    15.994914619560
           O          0.000000000000     0.000000000000     0.435714285700    15.994914619560

  Charge       = 0
  Multiplicity = 3
  Basis Set: 6-31G
    Blend: 6-31G
  Basis Set: (6-31G AUX)
    Blend: CC-PVDZ-JKFIT

    Orbital Energies (a.u.)
    -----------------------

    Doubly Occupied:

       1Ag   -20.709306     1B1u  -20.701982     2Ag    -2.126311
       2B1u   -0.967930     1B2u   -0.930977     1B3u   -0.930977
       3Ag    -0.819586

    Singly Occupied:

       1B3g   -0.029840     1B2g   -0.029840

  @DF-ROHF Final Energy:  -149.10630338249632

   => Energetics <=

    Nuclear Repulsion Energy =             38.8641622059168554
    One-Electron Energy =                -280.8478005499958954
    Two-Electron Energy =                  92.8773349615827186
    Total Energy =                       -149.1063033824963213
*** Psi4 exiting successfully. Buy a developer a beer!
