                               Psi4 1.2a1.dev429

  ==> Input File <==

--------------------------------------------------------------------------
# density-fitted hartree fock energies and gradients with 6-31g
molecule h20 {
0 1
O 0.0000000000 0.0000000000 0.0000000000
O 0.0000000000 0.0000000000 0.8353535354
}

set basis 6-31g

gradient('hf')
--------------------------------------------------------------------------

    Molecular point group: d2h
  Charge       = 0
  Multiplicity = 1
  Basis Set: 6-31G
    Blend: 6-31G
  Basis Set: (6-31G AUX)
    Blend: CC-PVDZ-JKFIT

    Orbital Energies (a.u.)
    -----------------------

    Doubly Occupied:

       1Ag   -20.729669     1B1u  -20.719305     2Ag    -2.191649
       1B3u   -1.016491     2B1u   -0.960017     1B2u   -0.934643
       3Ag    -0.836989     1B2g   -0.260530

  @DF-RHF Final Energy:  -148.87433716042364

   => Energetics <=

    Nuclear Repulsion Energy =             40.5425247090658374
    One-Electron Energy =                -283.5351362455981530
    Two-Electron Energy =                  94.1182743761087011
    Total Energy =                       -148.8743371604236074
    Molecular point group: d2h

    Geometry (in Angstrom), charge = 0, multiplicity = 1:

       Center              X                  Y                   Z               Mass
    ------------   -----------------  -----------------  -----------------  -----------------
           O          0.000000000000     0.000000000000    -0.417676767700    15.994914619560
           O          0.000000000000     0.000000000000     0.417676767700    15.994914619560

  Basis Set: 6-31G
    Blend: 6-31G
  Basis Set: (6-31G AUX)
    Blend: CC-PVDZ-JKFIT

  -Total Gradient:
     Atom            X                  Y                   Z
    ------   -----------------  -----------------  -----------------
       1       -0.000000000000     0.000000000000     2.705156140162
       2        0.000000000000     0.000000000000    -2.705156140162

*** Psi4 exiting successfully. Buy a developer a beer!
