                               Psi4 1.2a1.dev429

  ==> Input File <==

--------------------------------------------------------------------------
# density-fitted hartree fock energies and gradients with 6-31g
molecule h2o {
0 1
O 0.0000000000 0.0000000000 0.0000000000
H 0.0000000000 0.0000000000 1.2000000000
H 0.0000000000 0.6000000000 -1.0392304845
}

set basis 6-31g

gradient('mp2')
--------------------------------------------------------------------------

    Molecular point group: c2v
  Charge       = 0
  Multiplicity = 1
  Basis Set: 6-31G
    Blend: 6-31G
  Basis Set: (6-31G AUX)
    Blend: CC-PVDZ-JKFIT

    Orbital Energies (a.u.)
    -----------------------

    Doubly Occupied:

       1A1   -20.543924     2A1    -1.214347     1B2    -0.614754
       1B1    -0.452464     3A1    -0.449931

  @DF-RHF Final Energy:   -75.86785880475976

   => Energetics <=

    Nuclear Repulsion Energy =              7.2839646810046164
    One-Electron Energy =                -119.7528062088414771
    Two-Electron Energy =                  36.6009827230770881
    Total Energy =                        -75.8678588047597771
  Basis Set: (6-31G AUX)
    Blend: CC-PVDZ-RI
    Molecular point group: c2v

    Geometry (in Angstrom), charge = 0, multiplicity = 1:

       Center              X                  Y                   Z               Mass
    ------------   -----------------  -----------------  -----------------  -----------------
           O          0.000000000000     0.000000000000    -0.034758840760    15.994914619560
           H          0.000000000000    -1.159110991527     0.275824013368     1.007825032070
           H         -0.000000000000     1.159110991527     0.275824013368     1.007825032070

  Basis Set: 6-31G
    Blend: 6-31G
  Basis Set: (6-31G AUX)
    Blend: CC-PVDZ-JKFIT
  Basis Set: (6-31G AUX)
    Blend: CC-PVDZ-JKFIT
	 Reference Energy          =     -75.8678588047597628 [Eh]
	 Singles Energy            =      -0.0000000000000000 [Eh]
	 Same-Spin Energy          =      -0.0341347730055415 [Eh]
	 Opposite-Spin Energy      =      -0.1102754408840889 [Eh]
	 Correlation Energy        =      -0.1444102138896305 [Eh]
	 Total Energy              =     -76.0122690186493912 [Eh]

	 ================> DF-SCS-MP2 Energies <==================
	-----------------------------------------------------------
	 SCS Same-Spin Scale       =       0.3333333333333333 [-]
	 SCS Opposite-Spin Scale   =       1.2000000000000000 [-]
	 SCS Same-Spin Energy      =      -0.0113782576685138 [Eh]
	 SCS Opposite-Spin Energy  =      -0.1323305290609067 [Eh]
	 SCS Correlation Energy    =      -0.1437087867294206 [Eh]
	 SCS Total Energy          =     -76.0115675914891824 [Eh]
	-----------------------------------------------------------

  -Total Gradient:
     Atom            X                  Y                   Z
    ------   -----------------  -----------------  -----------------
       1       -0.000000000000     0.000000000001     0.018376836231
       2        0.000000000000    -0.118347344678    -0.009188418116
       3        0.000000000000     0.118347344677    -0.009188418116

*** Psi4 exiting successfully. Buy a developer a beer!
