                               Psi4 1.2a1.dev429

  ==> Input File <==

--------------------------------------------------------------------------
# density-fitted hartree fock energies and gradients with 6-31g
molecule h2o {
0 1
O 0.0000000000 0.0000000000 0.0000000000
H 0.0000000000 0.0000000000 1.2000000000
H 0.0000000000 0.5142300877 -0.6128355545
}

set basis 6-31g

gradient('mp2')
--------------------------------------------------------------------------

    Molecular point group: cs
  Charge       = 0
  Multiplicity = 1
  Basis Set: 6-31G
    Blend: 6-31G
  Basis Set: (6-31G AUX)
    Blend: CC-PVDZ-JKFIT

    Orbital Energies (a.u.)
    -----------------------

    Doubly Occupied:

       1Ap   -20.528056     2Ap    -1.334257     3Ap    -0.724949
       4Ap    -0.487545     1App   -0.477716

  @DF-RHF Final Energy:   -75.88936733297385

   => Energetics <=

    Nuclear Repulsion Energy =              9.1004463925680490
    One-Electron Energy =                -122.8745793286156385
    Two-Electron Energy =                  37.8847656030737525
    Total Energy =                        -75.8893673329738476
  Basis Set: (6-31G AUX)
    Blend: CC-PVDZ-RI
    Molecular point group: cs

    Geometry (in Angstrom), charge = 0, multiplicity = 1:

       Center              X                  Y                   Z               Mass
    ------------   -----------------  -----------------  -----------------  -----------------
           O          0.028774997549     0.032856217254     0.000000000000    15.994914619560
           H          0.028774997549    -1.167143782746     0.000000000000     1.007825032070
           H         -0.485455090151     0.645691771754     0.000000000000     1.007825032070

  Basis Set: 6-31G
    Blend: 6-31G
  Basis Set: (6-31G AUX)
    Blend: CC-PVDZ-JKFIT
  Basis Set: (6-31G AUX)
    Blend: CC-PVDZ-JKFIT
	 Reference Energy          =     -75.8893673329738476 [Eh]
	 Singles Energy            =      -0.0000000000000000 [Eh]
	 Same-Spin Energy          =      -0.0308105530121230 [Eh]
	 Opposite-Spin Energy      =      -0.0990594453074873 [Eh]
	 Correlation Energy        =      -0.1298699983196102 [Eh]
	 Total Energy              =     -76.0192373312934535 [Eh]

	 ================> DF-SCS-MP2 Energies <==================
	-----------------------------------------------------------
	 SCS Same-Spin Scale       =       0.3333333333333333 [-]
	 SCS Opposite-Spin Scale   =       1.2000000000000000 [-]
	 SCS Same-Spin Energy      =      -0.0102701843373743 [Eh]
	 SCS Opposite-Spin Energy  =      -0.1188713343689847 [Eh]
	 SCS Correlation Energy    =      -0.1291415187063590 [Eh]
	 SCS Total Energy          =     -76.0185088516802097 [Eh]
	-----------------------------------------------------------

  -Total Gradient:
     Atom            X                  Y                   Z
    ------   -----------------  -----------------  -----------------
       1       -0.260703556909     0.338025826194     0.000000000000
       2        0.028300870125    -0.127101596493     0.000000000000
       3        0.232402686784    -0.210924229701    -0.000000000000

*** Psi4 exiting successfully. Buy a developer a beer!
