                               Psi4 1.2a1.dev429

  ==> Input File <==

--------------------------------------------------------------------------
# density-fitted hartree fock energies and gradients with 6-31g
molecule h2o {
0 1
O 0.0000000000 0.0000000000 0.0000000000
H 0.0000000000 0.0000000000 1.3000000000
H 0.0000000000 0.9641814145 -1.1490666647
}

set basis 6-31g

gradient('mp2')
--------------------------------------------------------------------------

    Molecular point group: cs
  Charge       = 0
  Multiplicity = 1
  Basis Set: 6-31G
    Blend: 6-31G
  Basis Set: (6-31G AUX)
    Blend: CC-PVDZ-JKFIT

    Orbital Energies (a.u.)
    -----------------------

    Doubly Occupied:

       1Ap   -20.589101     2Ap    -1.196969     3Ap    -0.542715
       1App   -0.466887     4Ap    -0.442556

  @DF-RHF Final Energy:   -75.78181127324045

   => Energetics <=

    Nuclear Repulsion Energy =              6.2798065790927184
    One-Electron Energy =                -117.6467784328654886
    Two-Electron Energy =                  35.5851605805323175
    Total Energy =                        -75.7818112732404501
  Basis Set: (6-31G AUX)
    Blend: CC-PVDZ-RI
    Molecular point group: cs

    Geometry (in Angstrom), charge = 0, multiplicity = 1:

       Center              X                  Y                   Z               Mass
    ------------   -----------------  -----------------  -----------------  -----------------
           O          0.053953120408     0.008445842546     0.000000000000    15.994914619560
           H          0.053953120408    -1.291554157454     0.000000000000     1.007825032070
           H         -0.910228294092     1.157512507246     0.000000000000     1.007825032070

  Basis Set: 6-31G
    Blend: 6-31G
  Basis Set: (6-31G AUX)
    Blend: CC-PVDZ-JKFIT
  Basis Set: (6-31G AUX)
    Blend: CC-PVDZ-JKFIT
	 Reference Energy          =     -75.7818112732404501 [Eh]
	 Singles Energy            =      -0.0000000000000000 [Eh]
	 Same-Spin Energy          =      -0.0372137508035958 [Eh]
	 Opposite-Spin Energy      =      -0.1289440560724962 [Eh]
	 Correlation Energy        =      -0.1661578068760921 [Eh]
	 Total Energy              =     -75.9479690801165361 [Eh]

	 ================> DF-SCS-MP2 Energies <==================
	-----------------------------------------------------------
	 SCS Same-Spin Scale       =       0.3333333333333333 [-]
	 SCS Opposite-Spin Scale   =       1.2000000000000000 [-]
	 SCS Same-Spin Energy      =      -0.0124045836011986 [Eh]
	 SCS Opposite-Spin Energy  =      -0.1547328672869955 [Eh]
	 SCS Correlation Energy    =      -0.1671374508881941 [Eh]
	 SCS Total Energy          =     -75.9489487241286412 [Eh]
	-----------------------------------------------------------

  -Total Gradient:
     Atom            X                  Y                   Z
    ------   -----------------  -----------------  -----------------
       1       -0.002615610042     0.006141930105     0.000000000000
       2        0.038391522868    -0.100541062369    -0.000000000000
       3       -0.035775912827     0.094399132265    -0.000000000000

*** Psi4 exiting successfully. Buy a developer a beer!
