                               Psi4 1.2a1.dev429

  ==> Input File <==

--------------------------------------------------------------------------
# density-fitted hartree fock energies and gradients with 6-31g
molecule h2o {
0 1
O 0.0000000000 0.0000000000 0.0000000000
H 0.0000000000 0.0000000000 1.4000000000
H 0.0000000000 0.5785088487 -0.6894399988
}

set basis 6-31g

gradient('mp2')
--------------------------------------------------------------------------

    Molecular point group: cs
  Charge       = 0
  Multiplicity = 1
  Basis Set: 6-31G
    Blend: 6-31G
  Basis Set: (6-31G AUX)
    Blend: CC-PVDZ-JKFIT

    Orbital Energies (a.u.)
    -----------------------

    Doubly Occupied:

       1Ap   -20.544432     2Ap    -1.279695     3Ap    -0.651532
       1App   -0.467741     4Ap    -0.462203

  @DF-RHF Final Energy:   -75.86462289727724

   => Energetics <=

    Nuclear Repulsion Energy =              7.9717472009505785
    One-Electron Energy =                -120.8615354158122415
    Two-Electron Energy =                  37.0251653175844240
    Total Energy =                        -75.8646228972772434
  Basis Set: (6-31G AUX)
    Blend: CC-PVDZ-RI
    Molecular point group: cs

    Geometry (in Angstrom), charge = 0, multiplicity = 1:

       Center              X                  Y                   Z               Mass
    ------------   -----------------  -----------------  -----------------  -----------------
           O          0.032371872245     0.039761116243     0.000000000000    15.994914619560
           H          0.032371872245    -1.360238883757     0.000000000000     1.007825032070
           H         -0.546136976455     0.729201115043     0.000000000000     1.007825032070

  Basis Set: 6-31G
    Blend: 6-31G
  Basis Set: (6-31G AUX)
    Blend: CC-PVDZ-JKFIT
  Basis Set: (6-31G AUX)
    Blend: CC-PVDZ-JKFIT
	 Reference Energy          =     -75.8646228972772434 [Eh]
	 Singles Energy            =      -0.0000000000000000 [Eh]
	 Same-Spin Energy          =      -0.0330184010240193 [Eh]
	 Opposite-Spin Energy      =      -0.1093724788395985 [Eh]
	 Correlation Energy        =      -0.1423908798636178 [Eh]
	 Total Energy              =     -76.0070137771408554 [Eh]

	 ================> DF-SCS-MP2 Energies <==================
	-----------------------------------------------------------
	 SCS Same-Spin Scale       =       0.3333333333333333 [-]
	 SCS Opposite-Spin Scale   =       1.2000000000000000 [-]
	 SCS Same-Spin Energy      =      -0.0110061336746731 [Eh]
	 SCS Opposite-Spin Energy  =      -0.1312469746075182 [Eh]
	 SCS Correlation Energy    =      -0.1422531082821913 [Eh]
	 SCS Total Energy          =     -76.0068760055594339 [Eh]
	-----------------------------------------------------------

  -Total Gradient:
     Atom            X                  Y                   Z
    ------   -----------------  -----------------  -----------------
       1       -0.126317102130     0.161477480599     0.000000000000
       2        0.030340354609    -0.120520955570    -0.000000000000
       3        0.095976747521    -0.040956525029    -0.000000000000

*** Psi4 exiting successfully. Buy a developer a beer!
