                               Psi4 1.2a1.dev429

  ==> Input File <==

--------------------------------------------------------------------------
# density-fitted hartree fock energies and gradients with 6-31g
molecule h2o {
0 1
O 0.0000000000 0.0000000000 0.0000000000
H 0.0000000000 0.0000000000 0.9000000000
H 0.0000000000 1.2216004070 -0.4446261863
}

set basis 6-31g

gradient('mp2')
--------------------------------------------------------------------------

    Molecular point group: cs
  Charge       = 0
  Multiplicity = 1
  Basis Set: 6-31G
    Blend: 6-31G
  Basis Set: (6-31G AUX)
    Blend: CC-PVDZ-JKFIT

    Orbital Energies (a.u.)
    -----------------------

    Doubly Occupied:

       1Ap   -20.577671     2Ap    -1.317878     3Ap    -0.660076
       4Ap    -0.517359     1App   -0.495107

  @DF-RHF Final Energy:   -75.91787591669620

   => Energetics <=

    Nuclear Repulsion Energy =              8.2515605679288271
    One-Electron Energy =                -121.2026907556530375
    Two-Electron Energy =                  37.0332542710279924
    Total Energy =                        -75.9178759166962038
  Basis Set: (6-31G AUX)
    Blend: CC-PVDZ-RI
    Molecular point group: cs

    Geometry (in Angstrom), charge = 0, multiplicity = 1:

       Center              X                  Y                   Z               Mass
    ------------   -----------------  -----------------  -----------------  -----------------
           O          0.068357627369     0.025481551326     0.000000000000    15.994914619560
           H          0.068357627369    -0.874518448674     0.000000000000     1.007825032070
           H         -1.153242779631     0.470107737626     0.000000000000     1.007825032070

  Basis Set: 6-31G
    Blend: 6-31G
  Basis Set: (6-31G AUX)
    Blend: CC-PVDZ-JKFIT
  Basis Set: (6-31G AUX)
    Blend: CC-PVDZ-JKFIT
	 Reference Energy          =     -75.9178759166962038 [Eh]
	 Singles Energy            =      -0.0000000000000000 [Eh]
	 Same-Spin Energy          =      -0.0322260769214056 [Eh]
	 Opposite-Spin Energy      =      -0.1080548685950925 [Eh]
	 Correlation Energy        =      -0.1402809455164980 [Eh]
	 Total Energy              =     -76.0581568622126980 [Eh]

	 ================> DF-SCS-MP2 Energies <==================
	-----------------------------------------------------------
	 SCS Same-Spin Scale       =       0.3333333333333333 [-]
	 SCS Opposite-Spin Scale   =       1.2000000000000000 [-]
	 SCS Same-Spin Energy      =      -0.0107420256404685 [Eh]
	 SCS Opposite-Spin Energy  =      -0.1296658423141110 [Eh]
	 SCS Correlation Energy    =      -0.1404078679545795 [Eh]
	 SCS Total Energy          =     -76.0582837846507829 [Eh]
	-----------------------------------------------------------

  -Total Gradient:
     Atom            X                  Y                   Z
    ------   -----------------  -----------------  -----------------
       1        0.090901303580    -0.148223901820     0.000000000000
       2        0.012566021985     0.101307005350    -0.000000000000
       3       -0.103467325565     0.046916896470    -0.000000000000

*** Psi4 exiting successfully. Buy a developer a beer!
