                               Psi4 1.3.1 release

  ==> Input File <==

--------------------------------------------------------------------------
# density fitted hartree fock
molecule h2o {
0 1
H 0.0000000000 0.0000000000 1.2000000000
H 0.0000000000 1.0969241769 -0.0822031029
O 0.0000000000 0.0000000000 0.0000000000
}

set basis 6-31g
energy('hf')

--------------------------------------------------------------------------

    Molecular point group: cs

    Geometry (in Angstrom), charge = 0, multiplicity = 1:

       Center              X                  Y                   Z               Mass
    ------------   -----------------  -----------------  -----------------  -----------------
         H            0.061381065132    -1.137450950950     0.000000000000     1.007825032230
         H           -1.035543111768     0.144752151950     0.000000000000     1.007825032230
         O            0.061381065132     0.062549049050     0.000000000000    15.994914619570

  Charge       = 0
  Multiplicity = 1
  Basis Set: 6-31G
    Blend: 6-31G
  Basis Set: (6-31G AUX)
    Blend: CC-PVDZ-JKFIT

    Orbital Energies [Eh]
    ---------------------

    Doubly Occupied:

       1Ap   -20.605373     2Ap    -1.287481     3Ap    -0.607262
       4Ap    -0.547531     1App   -0.502025

  @DF-RHF Final Energy:   -75.92929352675044

   => Energetics <=

    Nuclear Repulsion Energy =              7.6900164069359764
    One-Electron Energy =                -120.1392641259805174
    Two-Electron Energy =                  36.5199541922941009
    Total Energy =                        -75.9292935267504276

  Dipole Moment: [D]
     X:    -2.0747      Y:    -1.8888      Z:     0.0000     Total:     2.8057

*** Psi4 exiting successfully. Buy a developer a beer!
