                               Psi4 1.2a1.dev429

  ==> Input File <==

--------------------------------------------------------------------------
# density-fitted hartree fock energies and gradients with 6-31g
molecule h20 {
0 1
O 0.0000000000 0.0000000000 0.0000000000
H 0.0000000000 0.0000000000 1.4000000000
H 0.0000000000 1.3155696691 -0.4788282007
}

set basis 6-31g

gradient('hf')
--------------------------------------------------------------------------

    Molecular point group: c2v
  Charge       = 0
  Multiplicity = 1
  Basis Set: 6-31G
    Blend: 6-31G
  Basis Set: (6-31G AUX)
    Blend: CC-PVDZ-JKFIT

    Orbital Energies (a.u.)
    -----------------------

    Doubly Occupied:

       1A1   -20.630130     2A1    -1.222852     1B2    -0.534666
       1B1    -0.494846     3A1    -0.486188

  @DF-RHF Final Energy:   -75.81168416685395

   => Energetics <=

    Nuclear Repulsion Energy =              6.2784559871352394
    One-Electron Energy =                -117.4429155881525304
    Two-Electron Energy =                  35.3527754341633340
    Total Energy =                        -75.8116841668539507
    Molecular point group: c2v

    Geometry (in Angstrom), charge = 0, multiplicity = 1:

       Center              X                  Y                   Z               Mass
    ------------   -----------------  -----------------  -----------------  -----------------
           O         -0.000000000000     0.000000000000    -0.089868427859    15.994914619560
           H          0.000000000000    -1.146812862023     0.713138583019     1.007825032070
           H         -0.000000000000     1.146812862023     0.713138583019     1.007825032070

  Basis Set: 6-31G
    Blend: 6-31G
  Basis Set: (6-31G AUX)
    Blend: CC-PVDZ-JKFIT

  -Total Gradient:
     Atom            X                  Y                   Z
    ------   -----------------  -----------------  -----------------
       1        0.000000000000     0.000000000000    -0.130543575841
       2        0.000000000000    -0.112797476550     0.065271787921
       3       -0.000000000000     0.112797476550     0.065271787921

*** Psi4 exiting successfully. Buy a developer a beer!
