                               Psi4 1.2a1.dev429

  ==> Input File <==

--------------------------------------------------------------------------
# density-fitted hartree fock energies and gradients with 6-31g
molecule h2o {
0 1
O 0.0000000000 0.0000000000 0.0000000000
H 0.0000000000 0.0000000000 0.9000000000
H 0.0000000000 0.7794228634 -0.4500000000
}

set basis 6-31g

gradient('mp2')
--------------------------------------------------------------------------

    Molecular point group: c2v
  Charge       = 0
  Multiplicity = 1
  Basis Set: 6-31G
    Blend: 6-31G
  Basis Set: (6-31G AUX)
    Blend: CC-PVDZ-JKFIT

    Orbital Energies (a.u.)
    -----------------------

    Doubly Occupied:

       1A1   -20.537805     2A1    -1.370927     1B2    -0.771260
       3A1    -0.539877     1B1    -0.498128

  @DF-RHF Final Energy:   -75.97881959135704

   => Energetics <=

    Nuclear Repulsion Energy =              9.7470621569927296
    One-Electron Energy =                -124.0157703766152224
    Two-Electron Energy =                  38.2898886282654658
    Total Energy =                        -75.9788195913570235
  Basis Set: (6-31G AUX)
    Blend: CC-PVDZ-RI
    Molecular point group: c2v

    Geometry (in Angstrom), charge = 0, multiplicity = 1:

       Center              X                  Y                   Z               Mass
    ------------   -----------------  -----------------  -----------------  -----------------
           O          0.000000000000     0.000000000000    -0.050361692972    15.994914619560
           H          0.000000000000    -0.779422863404     0.399638307025     1.007825032070
           H         -0.000000000000     0.779422863404     0.399638307025     1.007825032070

  Basis Set: 6-31G
    Blend: 6-31G
  Basis Set: (6-31G AUX)
    Blend: CC-PVDZ-JKFIT
  Basis Set: (6-31G AUX)
    Blend: CC-PVDZ-JKFIT
	 Reference Energy          =     -75.9788195913570377 [Eh]
	 Singles Energy            =      -0.0000000000000000 [Eh]
	 Same-Spin Energy          =      -0.0292019536481390 [Eh]
	 Opposite-Spin Energy      =      -0.0939396255920045 [Eh]
	 Correlation Energy        =      -0.1231415792401435 [Eh]
	 Total Energy              =     -76.1019611705971784 [Eh]

	 ================> DF-SCS-MP2 Energies <==================
	-----------------------------------------------------------
	 SCS Same-Spin Scale       =       0.3333333333333333 [-]
	 SCS Opposite-Spin Scale   =       1.2000000000000000 [-]
	 SCS Same-Spin Energy      =      -0.0097339845493797 [Eh]
	 SCS Opposite-Spin Energy  =      -0.1127275507104054 [Eh]
	 SCS Correlation Energy    =      -0.1224615352597851 [Eh]
	 SCS Total Energy          =     -76.1012811266168256 [Eh]
	-----------------------------------------------------------

  -Total Gradient:
     Atom            X                  Y                   Z
    ------   -----------------  -----------------  -----------------
       1        0.000000000000     0.000000000002     0.100133656371
       2        0.000000000000     0.066251437101    -0.050066828185
       3       -0.000000000000    -0.066251437103    -0.050066828186

*** Psi4 exiting successfully. Buy a developer a beer!
