                               Psi4 1.2a1.dev429

  ==> Input File <==

--------------------------------------------------------------------------
# density-fitted hartree fock energies and gradients with 6-31g
molecule h20 {
0 1
O 0.0000000000 0.0000000000 0.0000000000
H 0.0000000000 0.0000000000 1.3000000000
H 0.0000000000 1.0336618829 -0.3762221577
}

set basis 6-31g

gradient('hf')
--------------------------------------------------------------------------

    Molecular point group: cs
  Charge       = 0
  Multiplicity = 1
  Basis Set: 6-31G
    Blend: 6-31G
  Basis Set: (6-31G AUX)
    Blend: CC-PVDZ-JKFIT

    Orbital Energies (a.u.)
    -----------------------

    Doubly Occupied:

       1Ap   -20.599001     2Ap    -1.263827     3Ap    -0.607570
       4Ap    -0.510357     1App   -0.492274

  @DF-RHF Final Energy:   -75.90595249274838

   => Energetics <=

    Nuclear Repulsion Energy =              7.3737487842051044
    One-Electron Energy =                -119.6133440843711355
    Two-Electron Energy =                  36.3336428074176538
    Total Energy =                        -75.9059524927483835
    Molecular point group: cs

    Geometry (in Angstrom), charge = 0, multiplicity = 1:

       Center              X                  Y                   Z               Mass
    ------------   -----------------  -----------------  -----------------  -----------------
           O          0.057841069316     0.051692240076     0.000000000000    15.994914619560
           H          0.057841069316    -1.248307759924     0.000000000000     1.007825032070
           H         -0.975820813584     0.427914397776     0.000000000000     1.007825032070

  Basis Set: 6-31G
    Blend: 6-31G
  Basis Set: (6-31G AUX)
    Blend: CC-PVDZ-JKFIT

  -Total Gradient:
     Atom            X                  Y                   Z
    ------   -----------------  -----------------  -----------------
       1        0.077936072066     0.089481938096     0.000000000000
       2        0.009272324418    -0.132884671793     0.000000000000
       3       -0.087208396485     0.043402733697     0.000000000000

*** Psi4 exiting successfully. Buy a developer a beer!
