                               Psi4 1.3.1 release

  ==> Input File <==

--------------------------------------------------------------------------
# density fitted MP2
molecule h2o {
0 1
H 0.0000000000 0.0000000000 1.1125000000
H 0.0000000000 0.9634532617 -0.5562500000
O 0.0000000000 0.0000000000 0.0000000000
}

set basis 6-31g
energy('mp2')

--------------------------------------------------------------------------

    Molecular point group: c2v

    Geometry (in Angstrom), charge = 0, multiplicity = 1:

       Center              X                  Y                   Z               Mass
    ------------   -----------------  -----------------  -----------------  -----------------
         H            0.000000000000    -0.963453261708     0.493997351730     1.007825032230
         H           -0.000000000000     0.963453261708     0.493997351730     1.007825032230
         O           -0.000000000000     0.000000000000    -0.062252648266    15.994914619570

  Charge       = 0
  Multiplicity = 1
  Basis Set: 6-31G
    Blend: 6-31G
  Basis Set: (6-31G AUX)
    Blend: CC-PVDZ-JKFIT

    Orbital Energies [Eh]
    ---------------------

    Doubly Occupied:

       1A1   -20.574723     2A1    -1.274234     1B2    -0.647951
       3A1    -0.509517     1B1    -0.485350

  @DF-RHF Final Energy:   -75.94216147447273

   => Energetics <=

    Nuclear Repulsion Energy =              7.8852637984572791
    One-Electron Energy =                -120.6713019131194216
    Two-Electron Energy =                  36.8438766401894213
    Total Energy =                        -75.9421614744727265

  Dipole Moment: [D]
     X:    -0.0000      Y:     0.0000      Z:     2.3624     Total:     2.3624

  Basis Set: (6-31G AUX)
    Blend: CC-PVDZ-RI
	 Reference Energy          =     -75.9421614744727265 [Eh]
	 Singles Energy            =      -0.0000000000000000 [Eh]
	 Same-Spin Energy          =      -0.0330828657280924 [Eh]
	 Opposite-Spin Energy      =      -0.1084183105104932 [Eh]
	 Correlation Energy        =      -0.1415011762385856 [Eh]
	 Total Energy              =     -76.0836626507113181 [Eh]

	 ================> DF-SCS-MP2 Energies <==================
	-----------------------------------------------------------
	 SCS Same-Spin Scale       =       0.3333333333333333 [-]
	 SCS Opposite-Spin Scale   =       1.2000000000000000 [-]
	 SCS Same-Spin Energy      =      -0.0110276219093641 [Eh]
	 SCS Opposite-Spin Energy  =      -0.1301019726125918 [Eh]
	 SCS Correlation Energy    =      -0.1411295945219559 [Eh]
	 SCS Total Energy          =     -76.0832910689946829 [Eh]
	-----------------------------------------------------------

*** Psi4 exiting successfully. Buy a developer a beer!
