                               Psi4 1.3.1 release

  ==> Input File <==

--------------------------------------------------------------------------
# density fitted hartree fock
molecule h2o {
0 1
H 0.0000000000 0.0000000000 1.0500000000
H 0.0000000000 0.9460173113 -0.4555779261
O 0.0000000000 0.0000000000 0.0000000000
}

set basis 6-31g
energy('hf')

--------------------------------------------------------------------------

    Molecular point group: c2v

    Geometry (in Angstrom), charge = 0, multiplicity = 1:

       Center              X                  Y                   Z               Mass
    ------------   -----------------  -----------------  -----------------  -----------------
         H            0.000000000000    -0.889060409202     0.496114262786     1.007825032230
         H           -0.000000000000     0.889060409202     0.496114262786     1.007825032230
         O           -0.000000000000     0.000000000000    -0.062519417549    15.994914619570

  Charge       = 0
  Multiplicity = 1
  Basis Set: 6-31G
    Blend: 6-31G
  Basis Set: (6-31G AUX)
    Blend: CC-PVDZ-JKFIT

    Orbital Energies [Eh]
    ---------------------

    Doubly Occupied:

       1A1   -20.568324     2A1    -1.301307     1B2    -0.675476
       3A1    -0.525936     1B1    -0.490496

  @DF-RHF Final Energy:   -75.96719524886191

   => Energetics <=

    Nuclear Repulsion Energy =              8.3612574890499189
    One-Electron Energy =                -121.5338155712201740
    Two-Electron Energy =                  37.2053628333083495
    Total Energy =                        -75.9671952488619127

  Dipole Moment: [D]
     X:    -0.0000      Y:     0.0000      Z:     2.4486     Total:     2.4486

*** Psi4 exiting successfully. Buy a developer a beer!
