                               Psi4 1.3.1 release

  ==> Input File <==

--------------------------------------------------------------------------
# density fitted hartree fock
molecule h2o {
0 1
H 0.0000000000 0.0000000000 1.0000000000
H 0.0000000000 0.9500000000 0.0000000000
O 0.0000000000 0.0000000000 0.0000000000
}

set basis 6-31g
energy('hf')

--------------------------------------------------------------------------

    Molecular point group: cs

    Geometry (in Angstrom), charge = 0, multiplicity = 1:

       Center              X                  Y                   Z               Mass
    ------------   -----------------  -----------------  -----------------  -----------------
         H            0.053159564812    -0.944042563356     0.000000000000     1.007825032230
         H           -0.896840435188     0.055957436644     0.000000000000     1.007825032230
         O            0.053159564812     0.055957436644     0.000000000000    15.994914619570

  Charge       = 0
  Multiplicity = 1
  Basis Set: 6-31G
    Blend: 6-31G
  Basis Set: (6-31G AUX)
    Blend: CC-PVDZ-JKFIT

    Orbital Energies [Eh]
    ---------------------

    Doubly Occupied:

       1Ap   -20.573890     2Ap    -1.364427     3Ap    -0.673403
       4Ap    -0.586257     1App   -0.507445

  @DF-RHF Final Energy:   -75.97052889121287

   => Energetics <=

    Nuclear Repulsion Energy =              9.0733000058510314
    One-Electron Energy =                -122.6768288823300850
    Two-Electron Energy =                  37.6329999852661956
    Total Energy =                        -75.9705288912128651

  Dipole Moment: [D]
     X:    -2.0230      Y:    -2.0190      Z:     0.0000     Total:     2.8581

*** Psi4 exiting successfully. Buy a developer a beer!
