                               Psi4 1.2a1.dev429

  ==> Input File <==

--------------------------------------------------------------------------
# density-fitted hartree fock energies and gradients with 6-31g
molecule o2 {
0 3
O 0.0000000000 0.0000000000 0.0000000000
O 0.0000000000 0.0000000000 1.3585858586
}

set basis 6-31g
set reference rohf

gradient('scf')
--------------------------------------------------------------------------

    Molecular point group: d2h
  Charge       = 0
  Multiplicity = 3
  Basis Set: 6-31G
    Blend: 6-31G
  Basis Set: (6-31G AUX)
    Blend: CC-PVDZ-JKFIT

    Orbital Energies (a.u.)
    -----------------------

    Doubly Occupied:

       1Ag   -20.772778     1B1u  -20.772267     2Ag    -1.564640
       2B1u   -1.152533     3Ag    -0.680357     1B3u   -0.662584
       1B2u   -0.662584

    Singly Occupied:

       1B2g   -0.280333     1B3g   -0.280333

  @DF-ROHF Final Energy:  -149.49414255597031

   => Energetics <=

    Nuclear Repulsion Energy =             24.9283776475192589
    One-Electron Energy =                -255.1173554737400764
    Two-Electron Energy =                  80.6948352702505218
    Total Energy =                       -149.4941425559703134
    Molecular point group: d2h

    Geometry (in Angstrom), charge = 0, multiplicity = 3:

       Center              X                  Y                   Z               Mass
    ------------   -----------------  -----------------  -----------------  -----------------
           O          0.000000000000     0.000000000000    -0.679292929300    15.994914619560
           O          0.000000000000     0.000000000000     0.679292929300    15.994914619560

  Basis Set: 6-31G
    Blend: 6-31G
  Basis Set: (6-31G AUX)
    Blend: CC-PVDZ-JKFIT

  -Total Gradient:
     Atom            X                  Y                   Z
    ------   -----------------  -----------------  -----------------
       1        0.000000000000     0.000000000000    -0.176291518508
       2       -0.000000000000     0.000000000000     0.176291518508

*** Psi4 exiting successfully. Buy a developer a beer!
