                               Psi4 1.2a1.dev429

  ==> Input File <==

--------------------------------------------------------------------------
# density-fitted hartree fock energies and gradients with 6-31g
molecule h2o {
0 1
O 0.0000000000 0.0000000000 0.0000000000
H 0.0000000000 0.0000000000 1.1000000000
H 0.0000000000 0.2257426310 -1.2802500789
}

set basis 6-31g

gradient('mp2')
--------------------------------------------------------------------------

    Molecular point group: cs
  Charge       = 0
  Multiplicity = 1
  Basis Set: 6-31G
    Blend: 6-31G
  Basis Set: (6-31G AUX)
    Blend: CC-PVDZ-JKFIT

    Orbital Energies (a.u.)
    -----------------------

    Doubly Occupied:

       1Ap   -20.509851     2Ap    -1.194859     3Ap    -0.609764
       1App   -0.429630     4Ap    -0.428364

  @DF-RHF Final Energy:   -75.84271084193351

   => Energetics <=

    Nuclear Repulsion Energy =              7.3263635061163344
    One-Electron Energy =                -119.9932124248077230
    Two-Electron Energy =                  36.8241380767578761
    Total Energy =                        -75.8427108419335099
  Basis Set: (6-31G AUX)
    Blend: CC-PVDZ-RI
    Molecular point group: cs

    Geometry (in Angstrom), charge = 0, multiplicity = 1:

       Center              X                  Y                   Z               Mass
    ------------   -----------------  -----------------  -----------------  -----------------
           O          0.012631978970    -0.010086332369     0.000000000000    15.994914619560
           H          0.012631978970    -1.110086332369     0.000000000000     1.007825032070
           H         -0.213110652030     1.270163746531     0.000000000000     1.007825032070

  Basis Set: 6-31G
    Blend: 6-31G
  Basis Set: (6-31G AUX)
    Blend: CC-PVDZ-JKFIT
  Basis Set: (6-31G AUX)
    Blend: CC-PVDZ-JKFIT
	 Reference Energy          =     -75.8427108419335099 [Eh]
	 Singles Energy            =      -0.0000000000000000 [Eh]
	 Same-Spin Energy          =      -0.0336023983687687 [Eh]
	 Opposite-Spin Energy      =      -0.1057613485782917 [Eh]
	 Correlation Energy        =      -0.1393637469470604 [Eh]
	 Total Energy              =     -75.9820745888805646 [Eh]

	 ================> DF-SCS-MP2 Energies <==================
	-----------------------------------------------------------
	 SCS Same-Spin Scale       =       0.3333333333333333 [-]
	 SCS Opposite-Spin Scale   =       1.2000000000000000 [-]
	 SCS Same-Spin Energy      =      -0.0112007994562562 [Eh]
	 SCS Opposite-Spin Energy  =      -0.1269136182939500 [Eh]
	 SCS Correlation Energy    =      -0.1381144177502062 [Eh]
	 SCS Total Energy          =     -75.9808252596837121 [Eh]
	-----------------------------------------------------------

  -Total Gradient:
     Atom            X                  Y                   Z
    ------   -----------------  -----------------  -----------------
       1       -0.020357462279    -0.041545058101    -0.000000000000
       2        0.024173649736    -0.097891114534     0.000000000000
       3       -0.003816187457     0.139436172635    -0.000000000000

*** Psi4 exiting successfully. Buy a developer a beer!
