                               Psi4 1.2a1.dev429

  ==> Input File <==

--------------------------------------------------------------------------
# density-fitted hartree fock energies and gradients with 6-31g
molecule h2o {
0 1
O 0.0000000000 0.0000000000 0.0000000000
H 0.0000000000 0.0000000000 1.4000000000
H 0.0000000000 0.1910129954 -1.0832885283
}

set basis 6-31g

gradient('mp2')
--------------------------------------------------------------------------

    Molecular point group: cs
  Charge       = 0
  Multiplicity = 1
  Basis Set: 6-31G
    Blend: 6-31G
  Basis Set: (6-31G AUX)
    Blend: CC-PVDZ-JKFIT

    Orbital Energies (a.u.)
    -----------------------

    Doubly Occupied:

       1Ap   -20.508521     2Ap    -1.184249     3Ap    -0.585415
       1App   -0.424101     4Ap    -0.421473

  @DF-RHF Final Energy:   -75.81394951597515

   => Energetics <=

    Nuclear Repulsion Energy =              7.0848990033551456
    One-Electron Energy =                -119.5501808425090076
    Two-Electron Energy =                  36.6513323231787069
    Total Energy =                        -75.8139495159751533
  Basis Set: (6-31G AUX)
    Blend: CC-PVDZ-RI
    Molecular point group: cs

    Geometry (in Angstrom), charge = 0, multiplicity = 1:

       Center              X                  Y                   Z               Mass
    ------------   -----------------  -----------------  -----------------  -----------------
           O          0.010688597587     0.017722362110     0.000000000000    15.994914619560
           H          0.010688597587    -1.382277637890     0.000000000000     1.007825032070
           H         -0.180324397813     1.101010890410     0.000000000000     1.007825032070

  Basis Set: 6-31G
    Blend: 6-31G
  Basis Set: (6-31G AUX)
    Blend: CC-PVDZ-JKFIT
  Basis Set: (6-31G AUX)
    Blend: CC-PVDZ-JKFIT
	 Reference Energy          =     -75.8139495159751533 [Eh]
	 Singles Energy            =      -0.0000000000000000 [Eh]
	 Same-Spin Energy          =      -0.0341067000815010 [Eh]
	 Opposite-Spin Energy      =      -0.1082184412470498 [Eh]
	 Correlation Energy        =      -0.1423251413285508 [Eh]
	 Total Energy              =     -75.9562746573037089 [Eh]

	 ================> DF-SCS-MP2 Energies <==================
	-----------------------------------------------------------
	 SCS Same-Spin Scale       =       0.3333333333333333 [-]
	 SCS Opposite-Spin Scale   =       1.2000000000000000 [-]
	 SCS Same-Spin Energy      =      -0.0113689000271670 [Eh]
	 SCS Opposite-Spin Energy  =      -0.1298621294964598 [Eh]
	 SCS Correlation Energy    =      -0.1412310295236268 [Eh]
	 SCS Total Energy          =     -75.9551805454987772 [Eh]
	-----------------------------------------------------------

  -Total Gradient:
     Atom            X                  Y                   Z
    ------   -----------------  -----------------  -----------------
       1       -0.035657504573     0.037626833482     0.000000000000
       2        0.022950382060    -0.133772416887     0.000000000000
       3        0.012707122513     0.096145583405    -0.000000000000

*** Psi4 exiting successfully. Buy a developer a beer!
