                               Psi4 1.2a1.dev429

  ==> Input File <==

--------------------------------------------------------------------------
# density-fitted hartree fock energies and gradients with 6-31g
molecule h20 {
0 1
O 0.0000000000 0.0000000000 0.0000000000
H 0.0000000000 0.0000000000 1.2000000000
H 0.0000000000 0.9958577761 -0.8356238926
}

set basis 6-31g

gradient('hf')
--------------------------------------------------------------------------

    Molecular point group: cs
  Charge       = 0
  Multiplicity = 1
  Basis Set: 6-31G
    Blend: 6-31G
  Basis Set: (6-31G AUX)
    Blend: CC-PVDZ-JKFIT

    Orbital Energies (a.u.)
    -----------------------

    Doubly Occupied:

       1Ap   -20.583679     2Ap    -1.228974     3Ap    -0.593316
       1App   -0.475006     4Ap    -0.474591

  @DF-RHF Final Energy:   -75.86846894736365

   => Energetics <=

    Nuclear Repulsion Energy =              7.0178355488810453
    One-Electron Energy =                -119.0614743921601359
    Two-Electron Energy =                  36.1751698959154524
    Total Energy =                        -75.8684689473636524
    Molecular point group: cs

    Geometry (in Angstrom), charge = 0, multiplicity = 1:

       Center              X                  Y                   Z               Mass
    ------------   -----------------  -----------------  -----------------  -----------------
           O          0.055725648405     0.020389552942     0.000000000000    15.994914619560
           H          0.055725648405    -1.179610447058     0.000000000000     1.007825032070
           H         -0.940132127695     0.856013445542     0.000000000000     1.007825032070

  Basis Set: 6-31G
    Blend: 6-31G
  Basis Set: (6-31G AUX)
    Blend: CC-PVDZ-JKFIT

  -Total Gradient:
     Atom            X                  Y                   Z
    ------   -----------------  -----------------  -----------------
       1        0.056864264195     0.017335071037     0.000000000000
       2        0.029102055458    -0.124537105672     0.000000000000
       3       -0.085966319653     0.107202034635     0.000000000000

*** Psi4 exiting successfully. Buy a developer a beer!
