                               Psi4 1.2a1.dev429

  ==> Input File <==

--------------------------------------------------------------------------
# density-fitted hartree fock energies and gradients with 6-31g
molecule h2o {
0 1
O 0.0000000000 0.0000000000 0.0000000000
H 0.0000000000 0.0000000000 1.3000000000
H 0.0000000000 1.0000000000 0.0000000000
}

set basis 6-31g

gradient('mp2')
--------------------------------------------------------------------------

    Molecular point group: cs
  Charge       = 0
  Multiplicity = 1
  Basis Set: 6-31G
    Blend: 6-31G
  Basis Set: (6-31G AUX)
    Blend: CC-PVDZ-JKFIT

    Orbital Energies (a.u.)
    -----------------------

    Doubly Occupied:

       1Ap   -20.605925     2Ap    -1.303966     3Ap    -0.620904
       4Ap    -0.539163     1App   -0.505650

  @DF-RHF Final Energy:   -75.91634469976484

   => Energetics <=

    Nuclear Repulsion Energy =              7.8125378369783398
    One-Electron Energy =                -120.3065497377630209
    Two-Electron Energy =                  36.5776672010198425
    Total Energy =                        -75.9163446997648350
  Basis Set: (6-31G AUX)
    Blend: CC-PVDZ-RI
    Molecular point group: cs

    Geometry (in Angstrom), charge = 0, multiplicity = 1:

       Center              X                  Y                   Z               Mass
    ------------   -----------------  -----------------  -----------------  -----------------
           O          0.055957436636     0.072744667627     0.000000000000    15.994914619560
           H          0.055957436636    -1.227255332373     0.000000000000     1.007825032070
           H         -0.944042563364     0.072744667627     0.000000000000     1.007825032070

  Basis Set: 6-31G
    Blend: 6-31G
  Basis Set: (6-31G AUX)
    Blend: CC-PVDZ-JKFIT
  Basis Set: (6-31G AUX)
    Blend: CC-PVDZ-JKFIT
	 Reference Energy          =     -75.9163446997648350 [Eh]
	 Singles Energy            =      -0.0000000000000000 [Eh]
	 Same-Spin Energy          =      -0.0339464814126097 [Eh]
	 Opposite-Spin Energy      =      -0.1145018173557378 [Eh]
	 Correlation Energy        =      -0.1484482987683475 [Eh]
	 Total Energy              =     -76.0647929985331785 [Eh]

	 ================> DF-SCS-MP2 Energies <==================
	-----------------------------------------------------------
	 SCS Same-Spin Scale       =       0.3333333333333333 [-]
	 SCS Opposite-Spin Scale   =       1.2000000000000000 [-]
	 SCS Same-Spin Energy      =      -0.0113154938042032 [Eh]
	 SCS Opposite-Spin Energy  =      -0.1374021808268854 [Eh]
	 SCS Correlation Energy    =      -0.1487176746310886 [Eh]
	 SCS Total Energy          =     -76.0650623743959216 [Eh]
	-----------------------------------------------------------

  -Total Gradient:
     Atom            X                  Y                   Z
    ------   -----------------  -----------------  -----------------
       1        0.015586888330     0.114180538814     0.000000000000
       2       -0.012321316452    -0.098162829470    -0.000000000000
       3       -0.003265571878    -0.016017709344     0.000000000000

*** Psi4 exiting successfully. Buy a developer a beer!
