                               Psi4 1.2a1.dev429

  ==> Input File <==

--------------------------------------------------------------------------
# density-fitted hartree fock energies and gradients with 6-31g
molecule h20 {
0 1
O 0.0000000000 0.0000000000 0.0000000000
H 0.0000000000 0.0000000000 1.0000000000
H 0.0000000000 0.6893654271 -0.1215537244
}

set basis 6-31g

gradient('hf')
--------------------------------------------------------------------------

    Molecular point group: cs
  Charge       = 0
  Multiplicity = 1
  Basis Set: 6-31G
    Blend: 6-31G
  Basis Set: (6-31G AUX)
    Blend: CC-PVDZ-JKFIT

    Orbital Energies (a.u.)
    -----------------------

    Doubly Occupied:

       1Ap   -20.543082     2Ap    -1.459172     3Ap    -0.764049
       4Ap    -0.581322     1App   -0.513328

  @DF-RHF Final Energy:   -75.84912609808943

   => Energetics <=

    Nuclear Repulsion Energy =             10.6831223314628314
    One-Electron Energy =                -125.3425902068331226
    Two-Electron Energy =                  38.8103417772808683
    Total Energy =                        -75.8491260980894282
    Molecular point group: cs

    Geometry (in Angstrom), charge = 0, multiplicity = 1:

       Center              X                  Y                   Z               Mass
    ------------   -----------------  -----------------  -----------------  -----------------
           O          0.038575122206     0.049155601805     0.000000000000    15.994914619560
           H          0.038575122206    -0.950844398195     0.000000000000     1.007825032070
           H         -0.650790304894     0.170709326205     0.000000000000     1.007825032070

  Basis Set: 6-31G
    Blend: 6-31G
  Basis Set: (6-31G AUX)
    Blend: CC-PVDZ-JKFIT

  -Total Gradient:
     Atom            X                  Y                   Z
    ------   -----------------  -----------------  -----------------
       1       -0.697126173183     0.208553258054     0.000000000000
       2       -0.027322571951    -0.041179016683     0.000000000000
       3        0.724448745134    -0.167374241371     0.000000000000

*** Psi4 exiting successfully. Buy a developer a beer!
