                               Psi4 1.2.1 release

  ==> Input File <==

--------------------------------------------------------------------------
# density fitted hartree fock
molecule h2o {
0 1
H 0.0000000000 0.0000000000 1.2000000000
H 0.0000000000 0.8427281322 -0.1109472634
O 0.0000000000 0.0000000000 0.0000000000
}

set basis 6-31g
energy('hf')

--------------------------------------------------------------------------

    Molecular point group: cs

    Geometry (in Angstrom), charge = 0, multiplicity = 1:

       Center              X                  Y                   Z               Mass
    ------------   -----------------  -----------------  -----------------  -----------------
         H            0.047156906059    -1.139059400498     0.000000000000     1.007825032070
         H           -0.795571226141     0.171887862902     0.000000000000     1.007825032070
         O            0.047156906059     0.060940599502     0.000000000000    15.994914619560

  Charge       = 0
  Multiplicity = 1
  Basis Set: 6-31G
    Blend: 6-31G
  Basis Set: (6-31G AUX)
    Blend: CC-PVDZ-JKFIT

    Orbital Energies [Eh]
    ---------------------

    Doubly Occupied:

       1Ap   -20.576181     2Ap    -1.358454     3Ap    -0.676589
       4Ap    -0.552028     1App   -0.504628

  @DF-RHF Final Energy:   -75.92953834330670

   => Energetics <=

    Nuclear Repulsion Energy =              8.8478924769041178
    One-Electron Energy =                -122.2191002566044631
    Two-Electron Energy =                  37.4416694363936315
    Total Energy =                        -75.9295383433067173

  Dipole Moment: [D]
     X:    -2.0310      Y:    -1.8330      Z:     0.0000     Total:     2.7358

*** Psi4 exiting successfully. Buy a developer a beer!
