                               Psi4 1.2a1.dev429

  ==> Input File <==

--------------------------------------------------------------------------
# density-fitted hartree fock energies and gradients with 6-31g
molecule h2o {
0 1
O 0.0000000000 0.0000000000 0.0000000000
H 0.0000000000 0.0000000000 1.1000000000
H 0.0000000000 0.9958577761 -0.8356238926
}

set basis 6-31g

gradient('mp2')
--------------------------------------------------------------------------

    Molecular point group: cs
  Charge       = 0
  Multiplicity = 1
  Basis Set: 6-31G
    Blend: 6-31G
  Basis Set: (6-31G AUX)
    Blend: CC-PVDZ-JKFIT

    Orbital Energies (a.u.)
    -----------------------

    Doubly Occupied:

       1Ap   -20.574780     2Ap    -1.244202     3Ap    -0.616744
       4Ap    -0.478784     1App   -0.475357

  @DF-RHF Final Energy:   -75.89010477639091

   => Energetics <=

    Nuclear Repulsion Energy =              7.3481375253732484
    One-Electron Energy =                -119.6967486970574441
    Two-Electron Energy =                  36.4585063952932913
    Total Energy =                        -75.8901047763908991
  Basis Set: (6-31G AUX)
    Blend: CC-PVDZ-RI
    Molecular point group: cs

    Geometry (in Angstrom), charge = 0, multiplicity = 1:

       Center              X                  Y                   Z               Mass
    ------------   -----------------  -----------------  -----------------  -----------------
           O          0.055725648405     0.014793809278     0.000000000000    15.994914619560
           H          0.055725648405    -1.085206190722     0.000000000000     1.007825032070
           H         -0.940132127695     0.850417701878     0.000000000000     1.007825032070

  Basis Set: 6-31G
    Blend: 6-31G
  Basis Set: (6-31G AUX)
    Blend: CC-PVDZ-JKFIT
  Basis Set: (6-31G AUX)
    Blend: CC-PVDZ-JKFIT
	 Reference Energy          =     -75.8901047763909133 [Eh]
	 Singles Energy            =      -0.0000000000000000 [Eh]
	 Same-Spin Energy          =      -0.0343166768780599 [Eh]
	 Opposite-Spin Energy      =      -0.1138213691748703 [Eh]
	 Correlation Energy        =      -0.1481380460529302 [Eh]
	 Total Energy              =     -76.0382428224438485 [Eh]

	 ================> DF-SCS-MP2 Energies <==================
	-----------------------------------------------------------
	 SCS Same-Spin Scale       =       0.3333333333333333 [-]
	 SCS Opposite-Spin Scale   =       1.2000000000000000 [-]
	 SCS Same-Spin Energy      =      -0.0114388922926866 [Eh]
	 SCS Opposite-Spin Energy  =      -0.1365856430098444 [Eh]
	 SCS Correlation Energy    =      -0.1480245353025310 [Eh]
	 SCS Total Energy          =     -76.0381293116934387 [Eh]
	-----------------------------------------------------------

  -Total Gradient:
     Atom            X                  Y                   Z
    ------   -----------------  -----------------  -----------------
       1        0.033322912944    -0.018981670290    -0.000000000000
       2        0.034676950907    -0.076380297462     0.000000000000
       3       -0.067999863851     0.095361967752     0.000000000000

*** Psi4 exiting successfully. Buy a developer a beer!
