                               Psi4 1.3.1 release

  ==> Input File <==

--------------------------------------------------------------------------
# density fitted MP2
molecule h2o {
0 1
H 0.0000000000 0.0000000000 1.0250000000
H 0.0000000000 1.0162309829 -0.1337893470
O 0.0000000000 0.0000000000 0.0000000000
}

set basis 6-31g
energy('mp2')

--------------------------------------------------------------------------

    Molecular point group: c2v

    Geometry (in Angstrom), charge = 0, multiplicity = 1:

       Center              X                  Y                   Z               Mass
    ------------   -----------------  -----------------  -----------------  -----------------
         H            0.000000000000    -0.770635802654     0.600194092049     1.007825032230
         H           -0.000000000000     0.770635802654     0.600194092049     1.007825032230
         O           -0.000000000000     0.000000000000    -0.075635368434    15.994914619570

  Charge       = 0
  Multiplicity = 1
  Basis Set: 6-31G
    Blend: 6-31G
  Basis Set: (6-31G AUX)
    Blend: CC-PVDZ-JKFIT

    Orbital Energies [Eh]
    ---------------------

    Doubly Occupied:

       1A1   -20.579267     2A1    -1.330437     1B2    -0.662950
       3A1    -0.563973     1B1    -0.502091

  @DF-RHF Final Energy:   -75.97238959191927

   => Energetics <=

    Nuclear Repulsion Energy =              8.6036652560341089
    One-Electron Energy =                -121.8746714295105704
    Two-Electron Energy =                  37.2986165815571979
    Total Energy =                        -75.9723895919192671

  Dipole Moment: [D]
     X:     0.0000      Y:     0.0000      Z:     2.7627     Total:     2.7627

  Basis Set: (6-31G AUX)
    Blend: CC-PVDZ-RI
	 Reference Energy          =     -75.9723895919192671 [Eh]
	 Singles Energy            =      -0.0000000000000000 [Eh]
	 Same-Spin Energy          =      -0.0316026060491202 [Eh]
	 Opposite-Spin Energy      =      -0.1041625595430952 [Eh]
	 Correlation Energy        =      -0.1357651655922154 [Eh]
	 Total Energy              =     -76.1081547575114854 [Eh]

	 ================> DF-SCS-MP2 Energies <==================
	-----------------------------------------------------------
	 SCS Same-Spin Scale       =       0.3333333333333333 [-]
	 SCS Opposite-Spin Scale   =       1.2000000000000000 [-]
	 SCS Same-Spin Energy      =      -0.0105342020163734 [Eh]
	 SCS Opposite-Spin Energy  =      -0.1249950714517142 [Eh]
	 SCS Correlation Energy    =      -0.1355292734680876 [Eh]
	 SCS Total Energy          =     -76.1079188653873615 [Eh]
	-----------------------------------------------------------

*** Psi4 exiting successfully. Buy a developer a beer!
