                               Psi4 1.2a1.dev429

  ==> Input File <==

--------------------------------------------------------------------------
# density-fitted hartree fock energies and gradients with 6-31g
molecule h2o {
0 1
O 0.0000000000 0.0000000000 0.0000000000
H 0.0000000000 0.0000000000 1.3000000000
H 0.0000000000 1.2124355653 -0.7000000000
}

set basis 6-31g

gradient('mp2')
--------------------------------------------------------------------------

    Molecular point group: cs
  Charge       = 0
  Multiplicity = 1
  Basis Set: 6-31G
    Blend: 6-31G
  Basis Set: (6-31G AUX)
    Blend: CC-PVDZ-JKFIT

    Orbital Energies (a.u.)
    -----------------------

    Doubly Occupied:

       1Ap   -20.612147     2Ap    -1.221944     3Ap    -0.555121
       1App   -0.485980     4Ap    -0.477750

  @DF-RHF Final Energy:   -75.82933280587885

   => Energetics <=

    Nuclear Repulsion Energy =              6.5066047290983153
    One-Electron Energy =                -117.9659889967666118
    Two-Electron Energy =                  35.6300514617894422
    Total Energy =                        -75.8293328058788632
  Basis Set: (6-31G AUX)
    Blend: CC-PVDZ-RI
    Molecular point group: cs

    Geometry (in Angstrom), charge = 0, multiplicity = 1:

       Center              X                  Y                   Z               Mass
    ------------   -----------------  -----------------  -----------------  -----------------
           O          0.067844786321     0.033574461982     0.000000000000    15.994914619560
           H          0.067844786321    -1.266425538018     0.000000000000     1.007825032070
           H         -1.144590778979     0.733574461982     0.000000000000     1.007825032070

  Basis Set: 6-31G
    Blend: 6-31G
  Basis Set: (6-31G AUX)
    Blend: CC-PVDZ-JKFIT
  Basis Set: (6-31G AUX)
    Blend: CC-PVDZ-JKFIT
	 Reference Energy          =     -75.8293328058788489 [Eh]
	 Singles Energy            =      -0.0000000000000000 [Eh]
	 Same-Spin Energy          =      -0.0370212673995564 [Eh]
	 Opposite-Spin Energy      =      -0.1276091611285005 [Eh]
	 Correlation Energy        =      -0.1646304285280569 [Eh]
	 Total Energy              =     -75.9939632344069054 [Eh]

	 ================> DF-SCS-MP2 Energies <==================
	-----------------------------------------------------------
	 SCS Same-Spin Scale       =       0.3333333333333333 [-]
	 SCS Opposite-Spin Scale   =       1.2000000000000000 [-]
	 SCS Same-Spin Energy      =      -0.0123404224665188 [Eh]
	 SCS Opposite-Spin Energy  =      -0.1531309933542006 [Eh]
	 SCS Correlation Energy    =      -0.1654714158207194 [Eh]
	 SCS Total Energy          =     -75.9948042216995674 [Eh]
	-----------------------------------------------------------

  -Total Gradient:
     Atom            X                  Y                   Z
    ------   -----------------  -----------------  -----------------
       1        0.053361012971     0.030347045883     0.000000000000
       2        0.024379827481    -0.101371325278    -0.000000000000
       3       -0.077740840452     0.071024279395     0.000000000000

*** Psi4 exiting successfully. Buy a developer a beer!
