                               Psi4 1.2a1.dev429

  ==> Input File <==

--------------------------------------------------------------------------
# density-fitted hartree fock energies and gradients with 6-31g
molecule h2o {
0 1
O 0.0000000000 0.0000000000 0.0000000000
H 0.0000000000 0.0000000000 1.1000000000
H 0.0000000000 0.6128355545 -0.5142300877
}

set basis 6-31g

gradient('mp2')
--------------------------------------------------------------------------

    Molecular point group: cs
  Charge       = 0
  Multiplicity = 1
  Basis Set: 6-31G
    Blend: 6-31G
  Basis Set: (6-31G AUX)
    Blend: CC-PVDZ-JKFIT

    Orbital Energies (a.u.)
    -----------------------

    Doubly Occupied:

       1Ap   -20.534788     2Ap    -1.356469     3Ap    -0.749200
       4Ap    -0.512550     1App   -0.489174

  @DF-RHF Final Energy:   -75.92427841221739

   => Energetics <=

    Nuclear Repulsion Energy =              9.4468105693122482
    One-Electron Energy =                -123.4578129751265436
    Two-Electron Energy =                  38.0867239935969053
    Total Energy =                        -75.9242784122173902
  Basis Set: (6-31G AUX)
    Blend: CC-PVDZ-RI
    Molecular point group: cs

    Geometry (in Angstrom), charge = 0, multiplicity = 1:

       Center              X                  Y                   Z               Mass
    ------------   -----------------  -----------------  -----------------  -----------------
           O          0.034292706709     0.032778182751     0.000000000000    15.994914619560
           H          0.034292706709    -1.067221817249     0.000000000000     1.007825032070
           H         -0.578542847791     0.547008270451     0.000000000000     1.007825032070

  Basis Set: 6-31G
    Blend: 6-31G
  Basis Set: (6-31G AUX)
    Blend: CC-PVDZ-JKFIT
  Basis Set: (6-31G AUX)
    Blend: CC-PVDZ-JKFIT
	 Reference Energy          =     -75.9242784122173902 [Eh]
	 Singles Energy            =      -0.0000000000000000 [Eh]
	 Same-Spin Energy          =      -0.0299972222158542 [Eh]
	 Opposite-Spin Energy      =      -0.0964878532016126 [Eh]
	 Correlation Energy        =      -0.1264850754174668 [Eh]
	 Total Energy              =     -76.0507634876348533 [Eh]

	 ================> DF-SCS-MP2 Energies <==================
	-----------------------------------------------------------
	 SCS Same-Spin Scale       =       0.3333333333333333 [-]
	 SCS Opposite-Spin Scale   =       1.2000000000000000 [-]
	 SCS Same-Spin Energy      =      -0.0099990740719514 [Eh]
	 SCS Opposite-Spin Energy  =      -0.1157854238419351 [Eh]
	 SCS Correlation Energy    =      -0.1257844979138865 [Eh]
	 SCS Total Energy          =     -76.0500629101312740 [Eh]
	-----------------------------------------------------------

  -Total Gradient:
     Atom            X                  Y                   Z
    ------   -----------------  -----------------  -----------------
       1       -0.280939905563     0.275569185819    -0.000000000000
       2        0.022351746123    -0.098707888657    -0.000000000000
       3        0.258588159440    -0.176861297162     0.000000000000

*** Psi4 exiting successfully. Buy a developer a beer!
