                               Psi4 1.2a1.dev429

  ==> Input File <==

--------------------------------------------------------------------------
# density-fitted hartree fock energies and gradients with 6-31g
molecule h20 {
0 1
O 0.0000000000 0.0000000000 0.0000000000
H 0.0000000000 0.0000000000 1.3000000000
H 0.0000000000 0.8426488874 -0.7070663707
}

set basis 6-31g

gradient('hf')
--------------------------------------------------------------------------

    Molecular point group: cs
  Charge       = 0
  Multiplicity = 1
  Basis Set: 6-31G
    Blend: 6-31G
  Basis Set: (6-31G AUX)
    Blend: CC-PVDZ-JKFIT

    Orbital Energies (a.u.)
    -----------------------

    Doubly Occupied:

       1Ap   -20.574780     2Ap    -1.244202     3Ap    -0.616744
       4Ap    -0.478784     1App   -0.475357

  @DF-RHF Final Energy:   -75.89010477635443

   => Energetics <=

    Nuclear Repulsion Energy =              7.3481375254540708
    One-Electron Energy =                -119.6967487686791856
    Two-Electron Energy =                  36.4585064668706877
    Total Energy =                        -75.8901047763544341
    Molecular point group: cs

    Geometry (in Angstrom), charge = 0, multiplicity = 1:

       Center              X                  Y                   Z               Mass
    ------------   -----------------  -----------------  -----------------  -----------------
           O          0.047152471723     0.033179045991     0.000000000000    15.994914619560
           H          0.047152471723    -1.266820954009     0.000000000000     1.007825032070
           H         -0.795496415677     0.740245416691     0.000000000000     1.007825032070

  Basis Set: 6-31G
    Blend: 6-31G
  Basis Set: (6-31G AUX)
    Blend: CC-PVDZ-JKFIT

  -Total Gradient:
     Atom            X                  Y                   Z
    ------   -----------------  -----------------  -----------------
       1        0.031091144753     0.049175217232     0.000000000000
       2        0.026210523885    -0.137693421816     0.000000000000
       3       -0.057301668638     0.088518204585     0.000000000000

*** Psi4 exiting successfully. Buy a developer a beer!
