                               Psi4 1.2a1.dev429

  ==> Input File <==

--------------------------------------------------------------------------
# density-fitted hartree fock energies and gradients with 6-31g
molecule h2o {
0 1
O 0.0000000000 0.0000000000 0.0000000000
H 0.0000000000 0.0000000000 1.5000000000
H 0.0000000000 0.7878462024 -0.1389185421
}

set basis 6-31g

gradient('mp2')
--------------------------------------------------------------------------

    Molecular point group: cs
  Charge       = 0
  Multiplicity = 1
  Basis Set: 6-31G
    Blend: 6-31G
  Basis Set: (6-31G AUX)
    Blend: CC-PVDZ-JKFIT

    Orbital Energies (a.u.)
    -----------------------

    Doubly Occupied:

       1Ap   -20.586427     2Ap    -1.362121     3Ap    -0.666148
       1App   -0.505404     4Ap    -0.499562

  @DF-RHF Final Energy:   -75.83506323371012

   => Energetics <=

    Nuclear Repulsion Energy =              8.4050552835311709
    One-Electron Energy =                -121.2409141982971477
    Two-Electron Energy =                  37.0007956810558696
    Total Energy =                        -75.8350632337101160
  Basis Set: (6-31G AUX)
    Blend: CC-PVDZ-RI
    Molecular point group: cs

    Geometry (in Angstrom), charge = 0, multiplicity = 1:

       Center              X                  Y                   Z               Mass
    ------------   -----------------  -----------------  -----------------  -----------------
           O          0.044085853950     0.076162629437     0.000000000000    15.994914619560
           H          0.044085853950    -1.423837370563     0.000000000000     1.007825032070
           H         -0.743760348450     0.215081171537     0.000000000000     1.007825032070

  Basis Set: 6-31G
    Blend: 6-31G
  Basis Set: (6-31G AUX)
    Blend: CC-PVDZ-JKFIT
  Basis Set: (6-31G AUX)
    Blend: CC-PVDZ-JKFIT
	 Reference Energy          =     -75.8350632337101160 [Eh]
	 Singles Energy            =      -0.0000000000000000 [Eh]
	 Same-Spin Energy          =      -0.0318960617634745 [Eh]
	 Opposite-Spin Energy      =      -0.1124097189362679 [Eh]
	 Correlation Energy        =      -0.1443057806997425 [Eh]
	 Total Energy              =     -75.9793690144098548 [Eh]

	 ================> DF-SCS-MP2 Energies <==================
	-----------------------------------------------------------
	 SCS Same-Spin Scale       =       0.3333333333333333 [-]
	 SCS Opposite-Spin Scale   =       1.2000000000000000 [-]
	 SCS Same-Spin Energy      =      -0.0106320205878248 [Eh]
	 SCS Opposite-Spin Energy  =      -0.1348916627235215 [Eh]
	 SCS Correlation Energy    =      -0.1455236833113464 [Eh]
	 SCS Total Energy          =     -75.9805869170214692 [Eh]
	-----------------------------------------------------------

  -Total Gradient:
     Atom            X                  Y                   Z
    ------   -----------------  -----------------  -----------------
       1       -0.333079358215     0.161843225788     0.000000000000
       2        0.000850068663    -0.104880711329    -0.000000000000
       3        0.332229289553    -0.056962514459    -0.000000000000

*** Psi4 exiting successfully. Buy a developer a beer!
