                               Psi4 1.2a1.dev429

  ==> Input File <==

--------------------------------------------------------------------------
# density-fitted hartree fock energies and gradients with 6-31g
molecule h20 {
0 1
O 0.0000000000 0.0000000000 0.0000000000
H 0.0000000000 0.0000000000 0.7000000000
H 0.0000000000 0.9396926208 -0.3420201433
}

set basis 6-31g

gradient('hf')
--------------------------------------------------------------------------

    Molecular point group: cs
  Charge       = 0
  Multiplicity = 1
  Basis Set: 6-31G
    Blend: 6-31G
  Basis Set: (6-31G AUX)
    Blend: CC-PVDZ-JKFIT

    Orbital Energies (a.u.)
    -----------------------

    Doubly Occupied:

       1Ap   -20.536616     2Ap    -1.445402     3Ap    -0.784212
       4Ap    -0.563201     1App   -0.509322

  @DF-RHF Final Energy:   -75.85498800380597

   => Energetics <=

    Nuclear Repulsion Energy =             10.6582925266560711
    One-Electron Energy =                -125.3490556944088468
    Two-Electron Energy =                  38.8357751639468205
    Total Energy =                        -75.8549880038059570
    Molecular point group: cs

    Geometry (in Angstrom), charge = 0, multiplicity = 1:

       Center              X                  Y                   Z               Mass
    ------------   -----------------  -----------------  -----------------  -----------------
           O          0.052582790286     0.020031635148     0.000000000000    15.994914619560
           H          0.052582790286    -0.679968364852     0.000000000000     1.007825032070
           H         -0.887109830514     0.362051778448     0.000000000000     1.007825032070

  Basis Set: 6-31G
    Blend: 6-31G
  Basis Set: (6-31G AUX)
    Blend: CC-PVDZ-JKFIT

  -Total Gradient:
     Atom            X                  Y                   Z
    ------   -----------------  -----------------  -----------------
       1        0.063790033348    -0.747234156011     0.000000000000
       2       -0.012460785361     0.737834180771     0.000000000000
       3       -0.051329247986     0.009399975240     0.000000000000

*** Psi4 exiting successfully. Buy a developer a beer!
