                               Psi4 1.2a1.dev429

  ==> Input File <==

--------------------------------------------------------------------------
# density-fitted hartree fock energies and gradients with 6-31g
molecule h20 {
0 1
O 0.0000000000 0.0000000000 0.0000000000
H 0.0000000000 0.0000000000 1.3000000000
H 0.0000000000 0.4499513268 -0.5362311102
}

set basis 6-31g

gradient('hf')
--------------------------------------------------------------------------

    Molecular point group: cs
  Charge       = 0
  Multiplicity = 1
  Basis Set: 6-31G
    Blend: 6-31G
  Basis Set: (6-31G AUX)
    Blend: CC-PVDZ-JKFIT

    Orbital Energies (a.u.)
    -----------------------

    Doubly Occupied:

       1Ap   -20.522311     2Ap    -1.379632     3Ap    -0.723991
       4Ap    -0.483411     1App   -0.479236

  @DF-RHF Final Energy:   -75.76843741144936

   => Energetics <=

    Nuclear Repulsion Energy =              9.5841202979356304
    One-Electron Energy =                -123.5279517971838317
    Two-Electron Energy =                  38.1753940877988427
    Total Energy =                        -75.7684374114493551
    Molecular point group: cs

    Geometry (in Angstrom), charge = 0, multiplicity = 1:

       Center              X                  Y                   Z               Mass
    ------------   -----------------  -----------------  -----------------  -----------------
           O          0.025178122859     0.042738549256     0.000000000000    15.994914619560
           H          0.025178122859    -1.257261450744     0.000000000000     1.007825032070
           H         -0.424773203941     0.578969659456     0.000000000000     1.007825032070

  Basis Set: 6-31G
    Blend: 6-31G
  Basis Set: (6-31G AUX)
    Blend: CC-PVDZ-JKFIT

  -Total Gradient:
     Atom            X                  Y                   Z
    ------   -----------------  -----------------  -----------------
       1       -0.536142218371     0.688689396687     0.000000000000
       2        0.025962611779    -0.155692233031     0.000000000000
       3        0.510179606592    -0.532997163656     0.000000000000

*** Psi4 exiting successfully. Buy a developer a beer!
