                               Psi4 1.2a1.dev429

  ==> Input File <==

--------------------------------------------------------------------------
# density-fitted hartree fock energies and gradients with 6-31g
molecule h20 {
0 1
O 0.0000000000 0.0000000000 0.0000000000
H 0.0000000000 0.0000000000 0.7000000000
H 0.0000000000 1.3155696691 -0.4788282007
}

set basis 6-31g

gradient('hf')
--------------------------------------------------------------------------

    Molecular point group: cs
  Charge       = 0
  Multiplicity = 1
  Basis Set: 6-31G
    Blend: 6-31G
  Basis Set: (6-31G AUX)
    Blend: CC-PVDZ-JKFIT

    Orbital Energies (a.u.)
    -----------------------

    Doubly Occupied:

       1Ap   -20.562216     2Ap    -1.411336     3Ap    -0.698019
       4Ap    -0.510793     1App   -0.502214

  @DF-RHF Final Energy:   -75.76428889622814

   => Energetics <=

    Nuclear Repulsion Energy =              9.3711796327297385
    One-Electron Energy =                -122.9017810057943620
    Two-Electron Energy =                  37.7663124768364895
    Total Energy =                        -75.7642888962281376
    Molecular point group: cs

    Geometry (in Angstrom), charge = 0, multiplicity = 1:

       Center              X                  Y                   Z               Mass
    ------------   -----------------  -----------------  -----------------  -----------------
           O          0.073615906399     0.012376206945     0.000000000000    15.994914619560
           H          0.073615906399    -0.687623793055     0.000000000000     1.007825032070
           H         -1.241953762701     0.491204407645     0.000000000000     1.007825032070

  Basis Set: 6-31G
    Blend: 6-31G
  Basis Set: (6-31G AUX)
    Blend: CC-PVDZ-JKFIT

  -Total Gradient:
     Atom            X                  Y                   Z
    ------   -----------------  -----------------  -----------------
       1        0.116301261307    -0.801115997775     0.000000000000
       2        0.012390768489     0.747682940618     0.000000000000
       3       -0.128692029796     0.053433057157     0.000000000000

*** Psi4 exiting successfully. Buy a developer a beer!
