                               Psi4 1.2a1.dev429

  ==> Input File <==

--------------------------------------------------------------------------
# density-fitted hartree fock energies and gradients with 6-31g
molecule h20 {
0 1
O 0.0000000000 0.0000000000 0.0000000000
H 0.0000000000 0.0000000000 1.2000000000
H 0.0000000000 0.6894399988 -0.5785088487
}

set basis 6-31g

gradient('hf')
--------------------------------------------------------------------------

    Molecular point group: cs
  Charge       = 0
  Multiplicity = 1
  Basis Set: 6-31G
    Blend: 6-31G
  Basis Set: (6-31G AUX)
    Blend: CC-PVDZ-JKFIT

    Orbital Energies (a.u.)
    -----------------------

    Doubly Occupied:

       1Ap   -20.549502     2Ap    -1.305199     3Ap    -0.691637
       4Ap    -0.497139     1App   -0.481150

  @DF-RHF Final Energy:   -75.93062312105185

   => Energetics <=

    Nuclear Repulsion Energy =              8.5090698585261091
    One-Electron Energy =                -121.8301306690405994
    Two-Electron Energy =                  37.3904376894626438
    Total Energy =                        -75.9306231210518519
    Molecular point group: cs

    Geometry (in Angstrom), charge = 0, multiplicity = 1:

       Center              X                  Y                   Z               Mass
    ------------   -----------------  -----------------  -----------------  -----------------
           O          0.038579295047     0.034777051719     0.000000000000    15.994914619560
           H          0.038579295047    -1.165222948281     0.000000000000     1.007825032070
           H         -0.650860703753     0.613285900419     0.000000000000     1.007825032070

  Basis Set: 6-31G
    Blend: 6-31G
  Basis Set: (6-31G AUX)
    Blend: CC-PVDZ-JKFIT

  -Total Gradient:
     Atom            X                  Y                   Z
    ------   -----------------  -----------------  -----------------
       1       -0.094690926279     0.154412225895     0.000000000000
       2        0.024343314668    -0.137754158178     0.000000000000
       3        0.070347611611    -0.016658067718     0.000000000000

*** Psi4 exiting successfully. Buy a developer a beer!
