                               Psi4 1.2a1.dev429

  ==> Input File <==

--------------------------------------------------------------------------
# density-fitted hartree fock energies and gradients with 6-31g
molecule h2o {
0 1
O 0.0000000000 0.0000000000 0.0000000000
H 0.0000000000 0.0000000000 0.8000000000
H 0.0000000000 0.9641814145 -1.1490666647
}

set basis 6-31g

gradient('mp2')
--------------------------------------------------------------------------

    Molecular point group: cs
  Charge       = 0
  Multiplicity = 1
  Basis Set: 6-31G
    Blend: 6-31G
  Basis Set: (6-31G AUX)
    Blend: CC-PVDZ-JKFIT

    Orbital Energies (a.u.)
    -----------------------

    Doubly Occupied:

       1Ap   -20.536689     2Ap    -1.319025     3Ap    -0.661016
       1App   -0.469831     4Ap    -0.455403

  @DF-RHF Final Energy:   -75.80533712897022

   => Energetics <=

    Nuclear Repulsion Energy =              8.3574048899168769
    One-Electron Energy =                -121.4415575170026784
    Two-Electron Energy =                  37.2788154981155770
    Total Energy =                        -75.8053371289702227
  Basis Set: (6-31G AUX)
    Blend: CC-PVDZ-RI
    Molecular point group: cs

    Geometry (in Angstrom), charge = 0, multiplicity = 1:

       Center              X                  Y                   Z               Mass
    ------------   -----------------  -----------------  -----------------  -----------------
           O          0.053953120408    -0.019532875772     0.000000000000    15.994914619560
           H          0.053953120408    -0.819532875772     0.000000000000     1.007825032070
           H         -0.910228294092     1.129533788928     0.000000000000     1.007825032070

  Basis Set: 6-31G
    Blend: 6-31G
  Basis Set: (6-31G AUX)
    Blend: CC-PVDZ-JKFIT
  Basis Set: (6-31G AUX)
    Blend: CC-PVDZ-JKFIT
	 Reference Energy          =     -75.8053371289702227 [Eh]
	 Singles Energy            =      -0.0000000000000000 [Eh]
	 Same-Spin Energy          =      -0.0324561193481740 [Eh]
	 Opposite-Spin Energy      =      -0.1099292732049535 [Eh]
	 Correlation Energy        =      -0.1423853925531275 [Eh]
	 Total Energy              =     -75.9477225215233460 [Eh]

	 ================> DF-SCS-MP2 Energies <==================
	-----------------------------------------------------------
	 SCS Same-Spin Scale       =       0.3333333333333333 [-]
	 SCS Opposite-Spin Scale   =       1.2000000000000000 [-]
	 SCS Same-Spin Energy      =      -0.0108187064493913 [Eh]
	 SCS Opposite-Spin Energy  =      -0.1319151278459442 [Eh]
	 SCS Correlation Energy    =      -0.1427338342953355 [Eh]
	 SCS Total Energy          =     -75.9480709632655646 [Eh]
	-----------------------------------------------------------

  -Total Gradient:
     Atom            X                  Y                   Z
    ------   -----------------  -----------------  -----------------
       1       -0.000587460640    -0.429799509403    -0.000000000000
       2        0.052439128343     0.324495337704     0.000000000000
       3       -0.051851667703     0.105304171699     0.000000000000

*** Psi4 exiting successfully. Buy a developer a beer!
