                               Psi4 1.2a1.dev429

  ==> Input File <==

--------------------------------------------------------------------------
# density-fitted hartree fock energies and gradients with 6-31g
molecule h2o {
0 1
O 0.0000000000 0.0000000000 0.0000000000
H 0.0000000000 0.0000000000 1.5000000000
H 0.0000000000 0.1736481777 -0.9848077530
}

set basis 6-31g

gradient('mp2')
--------------------------------------------------------------------------

    Molecular point group: cs
  Charge       = 0
  Multiplicity = 1
  Basis Set: 6-31G
    Blend: 6-31G
  Basis Set: (6-31G AUX)
    Blend: CC-PVDZ-JKFIT

    Orbital Energies (a.u.)
    -----------------------

    Doubly Occupied:

       1Ap   -20.500274     2Ap    -1.199787     3Ap    -0.588927
       1App   -0.422509     4Ap    -0.418106

  @DF-RHF Final Energy:   -75.80069794785339

   => Energetics <=

    Nuclear Repulsion Energy =              7.2681430263686018
    One-Electron Energy =                -119.8784752236707192
    Two-Electron Energy =                  36.8096342494487132
    Total Energy =                        -75.8006979478533935
  Basis Set: (6-31G AUX)
    Blend: CC-PVDZ-RI
    Molecular point group: cs

    Geometry (in Angstrom), charge = 0, multiplicity = 1:

       Center              X                  Y                   Z               Mass
    ------------   -----------------  -----------------  -----------------  -----------------
           O          0.009716906901     0.028828837517     0.000000000000    15.994914619560
           H          0.009716906901    -1.471171162483     0.000000000000     1.007825032070
           H         -0.163931270799     1.013636590517     0.000000000000     1.007825032070

  Basis Set: 6-31G
    Blend: 6-31G
  Basis Set: (6-31G AUX)
    Blend: CC-PVDZ-JKFIT
  Basis Set: (6-31G AUX)
    Blend: CC-PVDZ-JKFIT
	 Reference Energy          =     -75.8006979478533935 [Eh]
	 Singles Energy            =      -0.0000000000000000 [Eh]
	 Same-Spin Energy          =      -0.0341085735148639 [Eh]
	 Opposite-Spin Energy      =      -0.1090336346194460 [Eh]
	 Correlation Energy        =      -0.1431422081343099 [Eh]
	 Total Energy              =     -75.9438401559877008 [Eh]

	 ================> DF-SCS-MP2 Energies <==================
	-----------------------------------------------------------
	 SCS Same-Spin Scale       =       0.3333333333333333 [-]
	 SCS Opposite-Spin Scale   =       1.2000000000000000 [-]
	 SCS Same-Spin Energy      =      -0.0113695245049546 [Eh]
	 SCS Opposite-Spin Energy  =      -0.1308403615433352 [Eh]
	 SCS Correlation Energy    =      -0.1422098860482899 [Eh]
	 SCS Total Energy          =     -75.9429078339016854 [Eh]
	-----------------------------------------------------------

  -Total Gradient:
     Atom            X                  Y                   Z
    ------   -----------------  -----------------  -----------------
       1       -0.054097974108     0.090587573357     0.000000000000
       2        0.024083515407    -0.128404281132    -0.000000000000
       3        0.030014458701     0.037816707775    -0.000000000000

*** Psi4 exiting successfully. Buy a developer a beer!
