                               Psi4 1.2a1.dev429

  ==> Input File <==

--------------------------------------------------------------------------
# density-fitted hartree fock energies and gradients with 6-31g
molecule h2o {
0 1
O 0.0000000000 0.0000000000 0.0000000000
H 0.0000000000 0.0000000000 1.2000000000
H 0.0000000000 0.5500000000 -0.9526279442
}

set basis 6-31g

gradient('mp2')
--------------------------------------------------------------------------

    Molecular point group: cs
  Charge       = 0
  Multiplicity = 1
  Basis Set: 6-31G
    Blend: 6-31G
  Basis Set: (6-31G AUX)
    Blend: CC-PVDZ-JKFIT

    Orbital Energies (a.u.)
    -----------------------

    Doubly Occupied:

       1Ap   -20.538010     2Ap    -1.229983     3Ap    -0.640367
       4Ap    -0.455551     1App   -0.455154

  @DF-RHF Final Energy:   -75.89114825913387

   => Energetics <=

    Nuclear Repulsion Energy =              7.6145866984557058
    One-Electron Energy =                -120.3733408000678651
    Two-Electron Energy =                  36.8676058424782838
    Total Energy =                        -75.8911482591338711
  Basis Set: (6-31G AUX)
    Blend: CC-PVDZ-RI
    Molecular point group: cs

    Geometry (in Angstrom), charge = 0, multiplicity = 1:

       Center              X                  Y                   Z               Mass
    ------------   -----------------  -----------------  -----------------  -----------------
           O          0.030776590150     0.013842306138     0.000000000000    15.994914619560
           H          0.030776590150    -1.186157693862     0.000000000000     1.007825032070
           H         -0.519223409850     0.966470250338     0.000000000000     1.007825032070

  Basis Set: 6-31G
    Blend: 6-31G
  Basis Set: (6-31G AUX)
    Blend: CC-PVDZ-JKFIT
  Basis Set: (6-31G AUX)
    Blend: CC-PVDZ-JKFIT
	 Reference Energy          =     -75.8911482591338711 [Eh]
	 Singles Energy            =      -0.0000000000000000 [Eh]
	 Same-Spin Energy          =      -0.0334376654135643 [Eh]
	 Opposite-Spin Energy      =      -0.1071613464361849 [Eh]
	 Correlation Energy        =      -0.1405990118497492 [Eh]
	 Total Energy              =     -76.0317472709836153 [Eh]

	 ================> DF-SCS-MP2 Energies <==================
	-----------------------------------------------------------
	 SCS Same-Spin Scale       =       0.3333333333333333 [-]
	 SCS Opposite-Spin Scale   =       1.2000000000000000 [-]
	 SCS Same-Spin Energy      =      -0.0111458884711881 [Eh]
	 SCS Opposite-Spin Energy  =      -0.1285936157234219 [Eh]
	 SCS Correlation Energy    =      -0.1397395041946100 [Eh]
	 SCS Total Energy          =     -76.0308877633284794 [Eh]
	-----------------------------------------------------------

  -Total Gradient:
     Atom            X                  Y                   Z
    ------   -----------------  -----------------  -----------------
       1       -0.026079400884     0.019362472789    -0.000000000000
       2        0.036625955902    -0.117540818423     0.000000000000
       3       -0.010546555018     0.098178345633     0.000000000000

*** Psi4 exiting successfully. Buy a developer a beer!
