                               Psi4 1.2a1.dev429

  ==> Input File <==

--------------------------------------------------------------------------
# density-fitted hartree fock energies and gradients with 6-31g
molecule h2o {
0 1
O 0.0000000000 0.0000000000 0.0000000000
H 0.0000000000 0.0000000000 0.9000000000
H 0.0000000000 0.4446261863 -1.2216004070
}

set basis 6-31g

gradient('mp2')
--------------------------------------------------------------------------

    Molecular point group: cs
  Charge       = 0
  Multiplicity = 1
  Basis Set: 6-31G
    Blend: 6-31G
  Basis Set: (6-31G AUX)
    Blend: CC-PVDZ-JKFIT

    Orbital Energies (a.u.)
    -----------------------

    Doubly Occupied:

       1Ap   -20.511186     2Ap    -1.260379     3Ap    -0.668701
       1App   -0.448927     4Ap    -0.447582

  @DF-RHF Final Energy:   -75.86853789937312

   => Energetics <=

    Nuclear Repulsion Energy =              8.2043928536781063
    One-Electron Energy =                -121.4723106555751997
    Two-Electron Energy =                  37.3993799025239682
    Total Energy =                        -75.8685378993731376
  Basis Set: (6-31G AUX)
    Blend: CC-PVDZ-RI
    Molecular point group: cs

    Geometry (in Angstrom), charge = 0, multiplicity = 1:

       Center              X                  Y                   Z               Mass
    ------------   -----------------  -----------------  -----------------  -----------------
           O          0.024880141647    -0.017995934397     0.000000000000    15.994914619560
           H          0.024880141647    -0.917995934397     0.000000000000     1.007825032070
           H         -0.419746044653     1.203604472603     0.000000000000     1.007825032070

  Basis Set: 6-31G
    Blend: 6-31G
  Basis Set: (6-31G AUX)
    Blend: CC-PVDZ-JKFIT
  Basis Set: (6-31G AUX)
    Blend: CC-PVDZ-JKFIT
	 Reference Energy          =     -75.8685378993731234 [Eh]
	 Singles Energy            =      -0.0000000000000000 [Eh]
	 Same-Spin Energy          =      -0.0324291364716684 [Eh]
	 Opposite-Spin Energy      =      -0.1029851735374373 [Eh]
	 Correlation Energy        =      -0.1354143100091057 [Eh]
	 Total Energy              =     -76.0039522093822342 [Eh]

	 ================> DF-SCS-MP2 Energies <==================
	-----------------------------------------------------------
	 SCS Same-Spin Scale       =       0.3333333333333333 [-]
	 SCS Opposite-Spin Scale   =       1.2000000000000000 [-]
	 SCS Same-Spin Energy      =      -0.0108097121572228 [Eh]
	 SCS Opposite-Spin Energy  =      -0.1235822082449247 [Eh]
	 SCS Correlation Energy    =      -0.1343919204021476 [Eh]
	 SCS Total Energy          =     -76.0029298197752752 [Eh]
	-----------------------------------------------------------

  -Total Gradient:
     Atom            X                  Y                   Z
    ------   -----------------  -----------------  -----------------
       1       -0.017393893216    -0.218753370185    -0.000000000000
       2        0.039527577957     0.077930945201     0.000000000000
       3       -0.022133684741     0.140822424984    -0.000000000000

*** Psi4 exiting successfully. Buy a developer a beer!
