                               Psi4 1.2a1.dev429

  ==> Input File <==

--------------------------------------------------------------------------
# density-fitted hartree fock energies and gradients with 6-31g
molecule h2o {
0 1
O 0.0000000000 0.0000000000 0.0000000000
H 0.0000000000 0.0000000000 1.0000000000
H 0.0000000000 1.0336618829 -0.3762221577
}

set basis 6-31g

gradient('mp2')
--------------------------------------------------------------------------

    Molecular point group: cs
  Charge       = 0
  Multiplicity = 1
  Basis Set: 6-31G
    Blend: 6-31G
  Basis Set: (6-31G AUX)
    Blend: CC-PVDZ-JKFIT

    Orbital Energies (a.u.)
    -----------------------

    Doubly Occupied:

       1Ap   -20.573449     2Ap    -1.309152     3Ap    -0.669649
       4Ap    -0.535798     1App   -0.494334

  @DF-RHF Final Energy:   -75.96620943031937

   => Energetics <=

    Nuclear Repulsion Energy =              8.3894302728182062
    One-Electron Energy =                -121.5465173121538101
    Two-Electron Energy =                  37.1908776090162405
    Total Energy =                        -75.9662094303193669
  Basis Set: (6-31G AUX)
    Blend: CC-PVDZ-RI
    Molecular point group: cs

    Geometry (in Angstrom), charge = 0, multiplicity = 1:

       Center              X                  Y                   Z               Mass
    ------------   -----------------  -----------------  -----------------  -----------------
           O          0.057841069316     0.034905009086     0.000000000000    15.994914619560
           H          0.057841069316    -0.965094990914     0.000000000000     1.007825032070
           H         -0.975820813584     0.411127166786     0.000000000000     1.007825032070

  Basis Set: 6-31G
    Blend: 6-31G
  Basis Set: (6-31G AUX)
    Blend: CC-PVDZ-JKFIT
  Basis Set: (6-31G AUX)
    Blend: CC-PVDZ-JKFIT
	 Reference Energy          =     -75.9662094303193669 [Eh]
	 Singles Energy            =      -0.0000000000000000 [Eh]
	 Same-Spin Energy          =      -0.0319512680839445 [Eh]
	 Opposite-Spin Energy      =      -0.1047794553039222 [Eh]
	 Correlation Energy        =      -0.1367307233878666 [Eh]
	 Total Energy              =     -76.1029401537072374 [Eh]

	 ================> DF-SCS-MP2 Energies <==================
	-----------------------------------------------------------
	 SCS Same-Spin Scale       =       0.3333333333333333 [-]
	 SCS Opposite-Spin Scale   =       1.2000000000000000 [-]
	 SCS Same-Spin Energy      =      -0.0106504226946482 [Eh]
	 SCS Opposite-Spin Energy  =      -0.1257353463647066 [Eh]
	 SCS Correlation Energy    =      -0.1363857690593548 [Eh]
	 SCS Total Energy          =     -76.1025951993787260 [Eh]
	-----------------------------------------------------------

  -Total Gradient:
     Atom            X                  Y                   Z
    ------   -----------------  -----------------  -----------------
       1        0.063631635693    -0.013724862835    -0.000000000000
       2        0.007382368569    -0.019264077029    -0.000000000000
       3       -0.071014004263     0.032988939865     0.000000000000

*** Psi4 exiting successfully. Buy a developer a beer!
