                               Psi4 1.2a1.dev429

  ==> Input File <==

--------------------------------------------------------------------------
# density-fitted hartree fock energies and gradients with 6-31g
molecule h20 {
0 1
O 0.0000000000 0.0000000000 0.0000000000
H 0.0000000000 0.0000000000 1.1000000000
H 0.0000000000 0.9848077530 -0.1736481777
}

set basis 6-31g

gradient('hf')
--------------------------------------------------------------------------

    Molecular point group: cs
  Charge       = 0
  Multiplicity = 1
  Basis Set: 6-31G
    Blend: 6-31G
  Basis Set: (6-31G AUX)
    Blend: CC-PVDZ-JKFIT

    Orbital Energies (a.u.)
    -----------------------

    Doubly Occupied:

       1Ap   -20.582022     2Ap    -1.319096     3Ap    -0.656341
       4Ap    -0.554209     1App   -0.500235

  @DF-RHF Final Energy:   -75.96504216767818

   => Energetics <=

    Nuclear Repulsion Energy =              8.4106653741049939
    One-Electron Energy =                -121.5276084649104860
    Two-Electron Energy =                  37.1519009231273074
    Total Energy =                        -75.9650421676781775
    Molecular point group: cs

    Geometry (in Angstrom), charge = 0, multiplicity = 1:

       Center              X                  Y                   Z               Mass
    ------------   -----------------  -----------------  -----------------  -----------------
           O          0.055107317437     0.051836273399     0.000000000000    15.994914619560
           H          0.055107317437    -1.048163726601     0.000000000000     1.007825032070
           H         -0.929700435563     0.225484451099     0.000000000000     1.007825032070

  Basis Set: 6-31G
    Blend: 6-31G
  Basis Set: (6-31G AUX)
    Blend: CC-PVDZ-JKFIT

  -Total Gradient:
     Atom            X                  Y                   Z
    ------   -----------------  -----------------  -----------------
       1        0.051420946830     0.100064292231     0.000000000000
       2       -0.011121782768    -0.094747430854     0.000000000000
       3       -0.040299164062    -0.005316861378     0.000000000000

*** Psi4 exiting successfully. Buy a developer a beer!
