                               Psi4 1.2a1.dev429

  ==> Input File <==

--------------------------------------------------------------------------
# density-fitted hartree fock energies and gradients with 6-31g
molecule h20 {
0 1
O 0.0000000000 0.0000000000 0.0000000000
H 0.0000000000 0.0000000000 1.3000000000
H 0.0000000000 0.5000000000 -0.8660254038
}

set basis 6-31g

gradient('hf')
--------------------------------------------------------------------------

    Molecular point group: cs
  Charge       = 0
  Multiplicity = 1
  Basis Set: 6-31G
    Blend: 6-31G
  Basis Set: (6-31G AUX)
    Blend: CC-PVDZ-JKFIT

    Orbital Energies (a.u.)
    -----------------------

    Doubly Occupied:

       1Ap   -20.534382     2Ap    -1.241742     3Ap    -0.643189
       1App   -0.455317     4Ap    -0.453359

  @DF-RHF Final Energy:   -75.87978633371642

   => Energetics <=

    Nuclear Repulsion Energy =              7.7279407422521587
    One-Electron Energy =                -120.5594760511408623
    Two-Electron Energy =                  36.9517489751722792
    Total Energy =                        -75.8797863337164245
    Molecular point group: cs

    Geometry (in Angstrom), charge = 0, multiplicity = 1:

       Center              X                  Y                   Z               Mass
    ------------   -----------------  -----------------  -----------------  -----------------
           O          0.027978718318     0.024284105969     0.000000000000    15.994914619560
           H          0.027978718318    -1.275715894031     0.000000000000     1.007825032070
           H         -0.472021281682     0.890309509769     0.000000000000     1.007825032070

  Basis Set: 6-31G
    Blend: 6-31G
  Basis Set: (6-31G AUX)
    Blend: CC-PVDZ-JKFIT

  -Total Gradient:
     Atom            X                  Y                   Z
    ------   -----------------  -----------------  -----------------
       1       -0.038059199961     0.084703886874     0.000000000000
       2        0.029865684062    -0.148163079532     0.000000000000
       3        0.008193515899     0.063459192657     0.000000000000

*** Psi4 exiting successfully. Buy a developer a beer!
