                               Psi4 1.2a1.dev429

  ==> Input File <==

--------------------------------------------------------------------------
# density-fitted hartree fock energies and gradients with 6-31g
molecule h20 {
0 1
O 0.0000000000 0.0000000000 0.0000000000
H 0.0000000000 0.0000000000 1.0000000000
H 0.0000000000 1.1000000000 0.0000000000
}

set basis 6-31g

gradient('hf')
--------------------------------------------------------------------------

    Molecular point group: cs
  Charge       = 0
  Multiplicity = 1
  Basis Set: 6-31G
    Blend: 6-31G
  Basis Set: (6-31G AUX)
    Blend: CC-PVDZ-JKFIT

    Orbital Energies (a.u.)
    -----------------------

    Doubly Occupied:

       1Ap   -20.589316     2Ap    -1.329197     3Ap    -0.641050
       4Ap    -0.572511     1App   -0.505484

  @DF-RHF Final Energy:   -75.95791994078360

   => Energetics <=

    Nuclear Repulsion Energy =              8.4379422971595854
    One-Electron Energy =                -121.5166068673006379
    Two-Electron Energy =                  37.1207446293574606
    Total Energy =                        -75.9579199407835972
    Molecular point group: cs

    Geometry (in Angstrom), charge = 0, multiplicity = 1:

       Center              X                  Y                   Z               Mass
    ------------   -----------------  -----------------  -----------------  -----------------
           O          0.061553180300     0.055957436636     0.000000000000    15.994914619560
           H          0.061553180300    -0.944042563364     0.000000000000     1.007825032070
           H         -1.038446819700     0.055957436636     0.000000000000     1.007825032070

  Basis Set: 6-31G
    Blend: 6-31G
  Basis Set: (6-31G AUX)
    Blend: CC-PVDZ-JKFIT

  -Total Gradient:
     Atom            X                  Y                   Z
    ------   -----------------  -----------------  -----------------
       1        0.117936130584     0.060453096997     0.000000000000
       2       -0.031176424312    -0.032110892844     0.000000000000
       3       -0.086759706271    -0.028342204153     0.000000000000

*** Psi4 exiting successfully. Buy a developer a beer!
