                               Psi4 1.2a1.dev429

  ==> Input File <==

--------------------------------------------------------------------------
# density-fitted hartree fock energies and gradients with 6-31g
molecule h2o {
0 1
O 0.0000000000 0.0000000000 0.0000000000
H 0.0000000000 0.0000000000 0.8000000000
H 0.0000000000 1.3787308542 -0.2431074487
}

set basis 6-31g

gradient('mp2')
--------------------------------------------------------------------------

    Molecular point group: cs
  Charge       = 0
  Multiplicity = 1
  Basis Set: 6-31G
    Blend: 6-31G
  Basis Set: (6-31G AUX)
    Blend: CC-PVDZ-JKFIT

    Orbital Energies (a.u.)
    -----------------------

    Doubly Occupied:

       1Ap   -20.581591     2Ap    -1.365389     3Ap    -0.671462
       4Ap    -0.517122     1App   -0.504886

  @DF-RHF Final Energy:   -75.85976312278262

   => Energetics <=

    Nuclear Repulsion Energy =              8.6217255571672684
    One-Electron Energy =                -121.6820777631283761
    Two-Electron Energy =                  37.2005890831784853
    Total Energy =                        -75.8597631227826241
  Basis Set: (6-31G AUX)
    Blend: CC-PVDZ-RI
    Molecular point group: cs

    Geometry (in Angstrom), charge = 0, multiplicity = 1:

       Center              X                  Y                   Z               Mass
    ------------   -----------------  -----------------  -----------------  -----------------
           O          0.077150244412     0.031162279653     0.000000000000    15.994914619560
           H          0.077150244412    -0.768837720347     0.000000000000     1.007825032070
           H         -1.301580609788     0.274269728353     0.000000000000     1.007825032070

  Basis Set: 6-31G
    Blend: 6-31G
  Basis Set: (6-31G AUX)
    Blend: CC-PVDZ-JKFIT
  Basis Set: (6-31G AUX)
    Blend: CC-PVDZ-JKFIT
	 Reference Energy          =     -75.8597631227826241 [Eh]
	 Singles Energy            =      -0.0000000000000000 [Eh]
	 Same-Spin Energy          =      -0.0314142856332993 [Eh]
	 Opposite-Spin Energy      =      -0.1084894374416666 [Eh]
	 Correlation Energy        =      -0.1399037230749660 [Eh]
	 Total Energy              =     -75.9996668458575897 [Eh]

	 ================> DF-SCS-MP2 Energies <==================
	-----------------------------------------------------------
	 SCS Same-Spin Scale       =       0.3333333333333333 [-]
	 SCS Opposite-Spin Scale   =       1.2000000000000000 [-]
	 SCS Same-Spin Energy      =      -0.0104714285444331 [Eh]
	 SCS Opposite-Spin Energy  =      -0.1301873249300000 [Eh]
	 SCS Correlation Energy    =      -0.1406587534744331 [Eh]
	 SCS Total Energy          =     -76.0004218762570503 [Eh]
	-----------------------------------------------------------

  -Total Gradient:
     Atom            X                  Y                   Z
    ------   -----------------  -----------------  -----------------
       1        0.110374034002    -0.352835240131     0.000000000000
       2       -0.002412675813     0.335198682737    -0.000000000000
       3       -0.107961358189     0.017636557393    -0.000000000000

*** Psi4 exiting successfully. Buy a developer a beer!
