                               Psi4 1.2a1.dev429

  ==> Input File <==

--------------------------------------------------------------------------
# density-fitted hartree fock energies and gradients with 6-31g
molecule h2o {
0 1
O 0.0000000000 0.0000000000 0.0000000000
H 0.0000000000 0.0000000000 1.3000000000
H 0.0000000000 0.8426488874 -0.7070663707
}

set basis 6-31g

gradient('mp2')
--------------------------------------------------------------------------

    Molecular point group: cs
  Charge       = 0
  Multiplicity = 1
  Basis Set: 6-31G
    Blend: 6-31G
  Basis Set: (6-31G AUX)
    Blend: CC-PVDZ-JKFIT

    Orbital Energies (a.u.)
    -----------------------

    Doubly Occupied:

       1Ap   -20.574780     2Ap    -1.244202     3Ap    -0.616744
       4Ap    -0.478784     1App   -0.475357

  @DF-RHF Final Energy:   -75.89010477635433

   => Energetics <=

    Nuclear Repulsion Energy =              7.3481375254540708
    One-Electron Energy =                -119.6967486977257948
    Two-Electron Energy =                  36.4585063959173894
    Total Energy =                        -75.8901047763543204
  Basis Set: (6-31G AUX)
    Blend: CC-PVDZ-RI
    Molecular point group: cs

    Geometry (in Angstrom), charge = 0, multiplicity = 1:

       Center              X                  Y                   Z               Mass
    ------------   -----------------  -----------------  -----------------  -----------------
           O          0.047152471723     0.033179045991     0.000000000000    15.994914619560
           H          0.047152471723    -1.266820954009     0.000000000000     1.007825032070
           H         -0.795496415677     0.740245416691     0.000000000000     1.007825032070

  Basis Set: 6-31G
    Blend: 6-31G
  Basis Set: (6-31G AUX)
    Blend: CC-PVDZ-JKFIT
  Basis Set: (6-31G AUX)
    Blend: CC-PVDZ-JKFIT
	 Reference Energy          =     -75.8901047763543346 [Eh]
	 Singles Energy            =      -0.0000000000000000 [Eh]
	 Same-Spin Energy          =      -0.0343166768777407 [Eh]
	 Opposite-Spin Energy      =      -0.1138213691731528 [Eh]
	 Correlation Energy        =      -0.1481380460508935 [Eh]
	 Total Energy              =     -76.0382428224052234 [Eh]

	 ================> DF-SCS-MP2 Energies <==================
	-----------------------------------------------------------
	 SCS Same-Spin Scale       =       0.3333333333333333 [-]
	 SCS Opposite-Spin Scale   =       1.2000000000000000 [-]
	 SCS Same-Spin Energy      =      -0.0114388922925802 [Eh]
	 SCS Opposite-Spin Energy  =      -0.1365856430077833 [Eh]
	 SCS Correlation Energy    =      -0.1480245353003636 [Eh]
	 SCS Total Energy          =     -76.0381293116546999 [Eh]
	-----------------------------------------------------------

  -Total Gradient:
     Atom            X                  Y                   Z
    ------   -----------------  -----------------  -----------------
       1        0.006878752594     0.037728014440     0.000000000000
       2        0.029342035885    -0.113388409723    -0.000000000000
       3       -0.036220788479     0.075660395283    -0.000000000000

*** Psi4 exiting successfully. Buy a developer a beer!
