                               Psi4 1.2a1.dev429

  ==> Input File <==

--------------------------------------------------------------------------
# density-fitted hartree fock energies and gradients with 6-31g
molecule h2o {
0 1
O 0.0000000000 0.0000000000 0.0000000000
H 0.0000000000 0.0000000000 1.1000000000
H 0.0000000000 0.4104241720 -1.1276311449
}

set basis 6-31g

gradient('mp2')
--------------------------------------------------------------------------

    Molecular point group: cs
  Charge       = 0
  Multiplicity = 1
  Basis Set: 6-31G
    Blend: 6-31G
  Basis Set: (6-31G AUX)
    Blend: CC-PVDZ-JKFIT

    Orbital Energies (a.u.)
    -----------------------

    Doubly Occupied:

       1Ap   -20.522616     2Ap    -1.217983     3Ap    -0.639013
       1App   -0.444394     4Ap    -0.443528

  @DF-RHF Final Energy:   -75.87950227664183

   => Energetics <=

    Nuclear Repulsion Energy =              7.6100290657013447
    One-Electron Energy =                -120.4439961005153776
    Two-Electron Energy =                  36.9544647581722145
    Total Energy =                        -75.8795022766418299
  Basis Set: (6-31G AUX)
    Blend: CC-PVDZ-RI
    Molecular point group: cs

    Geometry (in Angstrom), charge = 0, multiplicity = 1:

       Center              X                  Y                   Z               Mass
    ------------   -----------------  -----------------  -----------------  -----------------
           O          0.022966284599    -0.001546168040     0.000000000000    15.994914619560
           H          0.022966284599    -1.101546168040     0.000000000000     1.007825032070
           H         -0.387457887401     1.126084976860     0.000000000000     1.007825032070

  Basis Set: 6-31G
    Blend: 6-31G
  Basis Set: (6-31G AUX)
    Blend: CC-PVDZ-JKFIT
  Basis Set: (6-31G AUX)
    Blend: CC-PVDZ-JKFIT
	 Reference Energy          =     -75.8795022766418299 [Eh]
	 Singles Energy            =      -0.0000000000000000 [Eh]
	 Same-Spin Energy          =      -0.0332540441180770 [Eh]
	 Opposite-Spin Energy      =      -0.1052603180263545 [Eh]
	 Correlation Energy        =      -0.1385143621444315 [Eh]
	 Total Energy              =     -76.0180166387862641 [Eh]

	 ================> DF-SCS-MP2 Energies <==================
	-----------------------------------------------------------
	 SCS Same-Spin Scale       =       0.3333333333333333 [-]
	 SCS Opposite-Spin Scale   =       1.2000000000000000 [-]
	 SCS Same-Spin Energy      =      -0.0110846813726923 [Eh]
	 SCS Opposite-Spin Energy  =      -0.1263123816316254 [Eh]
	 SCS Correlation Energy    =      -0.1373970630043177 [Eh]
	 SCS Total Energy          =     -76.0168993396461445 [Eh]
	-----------------------------------------------------------

  -Total Gradient:
     Atom            X                  Y                   Z
    ------   -----------------  -----------------  -----------------
       1       -0.021427107469    -0.031182081168    -0.000000000000
       2        0.034434334821    -0.096844303232    -0.000000000000
       3       -0.013007227352     0.128026384400     0.000000000000

*** Psi4 exiting successfully. Buy a developer a beer!
