                               Psi4 1.3.1 release

  ==> Input File <==

--------------------------------------------------------------------------
# density fitted MP2
molecule h2o {
0 1
H 0.0000000000 0.0000000000 1.1125000000
H 0.0000000000 0.8661370617 -0.3587657178
O 0.0000000000 0.0000000000 0.0000000000
}

set basis 6-31g
energy('mp2')

--------------------------------------------------------------------------

    Molecular point group: cs

    Geometry (in Angstrom), charge = 0, multiplicity = 1:

       Center              X                  Y                   Z               Mass
    ------------   -----------------  -----------------  -----------------  -----------------
         H            0.048466809755    -1.070322961657     0.000000000000     1.007825032230
         H           -0.817670251945     0.400942756143     0.000000000000     1.007825032230
         O            0.048466809755     0.042177038343     0.000000000000    15.994914619570

  Charge       = 0
  Multiplicity = 1
  Basis Set: 6-31G
    Blend: 6-31G
  Basis Set: (6-31G AUX)
    Blend: CC-PVDZ-JKFIT

    Orbital Energies [Eh]
    ---------------------

    Doubly Occupied:

       1Ap   -20.565870     2Ap    -1.321979     3Ap    -0.686976
       4Ap    -0.533638     1App   -0.494116

  @DF-RHF Final Energy:   -75.96514748910425

   => Energetics <=

    Nuclear Repulsion Energy =              8.6309175846336785
    One-Electron Energy =                -121.9869705712302022
    Two-Electron Energy =                  37.3909054974922768
    Total Energy =                        -75.9651474891042540

  Dipole Moment: [D]
     X:    -2.0254      Y:    -1.4753      Z:     0.0000     Total:     2.5057

  Basis Set: (6-31G AUX)
    Blend: CC-PVDZ-RI
	 Reference Energy          =     -75.9651474891042540 [Eh]
	 Singles Energy            =      -0.0000000000000000 [Eh]
	 Same-Spin Energy          =      -0.0313851806415936 [Eh]
	 Opposite-Spin Energy      =      -0.1027154282777101 [Eh]
	 Correlation Energy        =      -0.1341006089193037 [Eh]
	 Total Energy              =     -76.0992480980235513 [Eh]

	 ================> DF-SCS-MP2 Energies <==================
	-----------------------------------------------------------
	 SCS Same-Spin Scale       =       0.3333333333333333 [-]
	 SCS Opposite-Spin Scale   =       1.2000000000000000 [-]
	 SCS Same-Spin Energy      =      -0.0104617268805312 [Eh]
	 SCS Opposite-Spin Energy  =      -0.1232585139332522 [Eh]
	 SCS Correlation Energy    =      -0.1337202408137833 [Eh]
	 SCS Total Energy          =     -76.0988677299180409 [Eh]
	-----------------------------------------------------------

*** Psi4 exiting successfully. Buy a developer a beer!
