                               Psi4 1.2a1.dev429

  ==> Input File <==

--------------------------------------------------------------------------
# density-fitted hartree fock energies and gradients with 6-31g
molecule h2o {
0 1
O 0.0000000000 0.0000000000 0.0000000000
H 0.0000000000 0.0000000000 1.3000000000
H 0.0000000000 1.2990381057 -0.7500000000
}

set basis 6-31g

gradient('mp2')
--------------------------------------------------------------------------

    Molecular point group: cs
  Charge       = 0
  Multiplicity = 1
  Basis Set: 6-31G
    Blend: 6-31G
  Basis Set: (6-31G AUX)
    Blend: CC-PVDZ-JKFIT

    Orbital Energies (a.u.)
    -----------------------

    Doubly Occupied:

       1Ap   -20.618184     2Ap    -1.217614     3Ap    -0.544598
       1App   -0.487385     4Ap    -0.467964

  @DF-RHF Final Energy:   -75.80484366231282

   => Energetics <=

    Nuclear Repulsion Energy =              6.2967972457735693
    One-Electron Energy =                -117.5317943257763886
    Two-Electron Energy =                  35.4301534176899935
    Total Energy =                        -75.8048436623128197
  Basis Set: (6-31G AUX)
    Blend: CC-PVDZ-RI
    Molecular point group: cs

    Geometry (in Angstrom), charge = 0, multiplicity = 1:

       Center              X                  Y                   Z               Mass
    ------------   -----------------  -----------------  -----------------  -----------------
           O          0.072690842488     0.030776590150     0.000000000000    15.994914619560
           H          0.072690842488    -1.269223409850     0.000000000000     1.007825032070
           H         -1.226347263212     0.780776590150     0.000000000000     1.007825032070

  Basis Set: 6-31G
    Blend: 6-31G
  Basis Set: (6-31G AUX)
    Blend: CC-PVDZ-JKFIT
  Basis Set: (6-31G AUX)
    Blend: CC-PVDZ-JKFIT
	 Reference Energy          =     -75.8048436623128197 [Eh]
	 Singles Energy            =      -0.0000000000000000 [Eh]
	 Same-Spin Energy          =      -0.0378103365099363 [Eh]
	 Opposite-Spin Energy      =      -0.1323770530205374 [Eh]
	 Correlation Energy        =      -0.1701873895304738 [Eh]
	 Total Energy              =     -75.9750310518432883 [Eh]

	 ================> DF-SCS-MP2 Energies <==================
	-----------------------------------------------------------
	 SCS Same-Spin Scale       =       0.3333333333333333 [-]
	 SCS Opposite-Spin Scale   =       1.2000000000000000 [-]
	 SCS Same-Spin Energy      =      -0.0126034455033121 [Eh]
	 SCS Opposite-Spin Energy  =      -0.1588524636246449 [Eh]
	 SCS Correlation Energy    =      -0.1714559091279570 [Eh]
	 SCS Total Energy          =     -75.9762995714407765 [Eh]
	-----------------------------------------------------------

  -Total Gradient:
     Atom            X                  Y                   Z
    ------   -----------------  -----------------  -----------------
       1        0.049086422360     0.031987440316     0.000000000000
       2        0.024381548653    -0.098803793785    -0.000000000000
       3       -0.073467971013     0.066816353469    -0.000000000000

*** Psi4 exiting successfully. Buy a developer a beer!
