                               Psi4 1.2.1 release

  ==> Input File <==

--------------------------------------------------------------------------
# density fitted hartree fock
molecule h2o {
0 1
H 0.0000000000 0.0000000000 0.8500000000
H 0.0000000000 0.8210369523 -0.2199961883
O 0.0000000000 0.0000000000 0.0000000000
}

set basis 6-31g
energy('hf')

--------------------------------------------------------------------------

    Molecular point group: c2v

    Geometry (in Angstrom), charge = 0, multiplicity = 1:

       Center              X                  Y                   Z               Mass
    ------------   -----------------  -----------------  -----------------  -----------------
         H            0.000000000000    -0.674350339219     0.459537175198     1.007825032070
         H           -0.000000000000     0.674350339219     0.459537175198     1.007825032070
         O           -0.000000000000     0.000000000000    -0.057910039453    15.994914619560

  Charge       = 0
  Multiplicity = 1
  Basis Set: 6-31G
    Blend: 6-31G
  Basis Set: (6-31G AUX)
    Blend: CC-PVDZ-JKFIT

    Orbital Energies [Eh]
    ---------------------

    Doubly Occupied:

       1A1   -20.538787     2A1    -1.422051     1B2    -0.776437
       3A1    -0.575516     1B1    -0.508918

  @DF-RHF Final Energy:   -75.95579426633745

   => Energetics <=

    Nuclear Repulsion Energy =             10.3533434994085454
    One-Electron Energy =                -124.9748602271407094
    Two-Electron Energy =                  38.6657224613947221
    Total Energy =                        -75.9557942663374490

  Dipole Moment: [D]
     X:    -0.0000      Y:     0.0000      Z:     2.5665     Total:     2.5665

*** Psi4 exiting successfully. Buy a developer a beer!
