                               Psi4 1.2a1.dev429

  ==> Input File <==

--------------------------------------------------------------------------
# density-fitted hartree fock energies and gradients with 6-31g
molecule h2o {
0 1
O 0.0000000000 0.0000000000 0.0000000000
H 0.0000000000 0.0000000000 1.1000000000
H 0.0000000000 0.8000000000 0.0000000000
}

set basis 6-31g

gradient('mp2')
--------------------------------------------------------------------------

    Molecular point group: cs
  Charge       = 0
  Multiplicity = 1
  Basis Set: 6-31G
    Blend: 6-31G
  Basis Set: (6-31G AUX)
    Blend: CC-PVDZ-JKFIT

    Orbital Energies (a.u.)
    -----------------------

    Doubly Occupied:

       1Ap   -20.567496     2Ap    -1.402452     3Ap    -0.694717
       4Ap    -0.580837     1App   -0.510785

  @DF-RHF Final Energy:   -75.92021390192249

   => Energetics <=

    Nuclear Repulsion Energy =              9.5293924243523342
    One-Electron Energy =                -123.3866367446111241
    Two-Electron Energy =                  37.9370304183362990
    Total Energy =                        -75.9202139019224944
  Basis Set: (6-31G AUX)
    Blend: CC-PVDZ-RI
    Molecular point group: cs

    Geometry (in Angstrom), charge = 0, multiplicity = 1:

       Center              X                  Y                   Z               Mass
    ------------   -----------------  -----------------  -----------------  -----------------
           O          0.044765949309     0.061553180300     0.000000000000    15.994914619560
           H          0.044765949309    -1.038446819700     0.000000000000     1.007825032070
           H         -0.755234050691     0.061553180300     0.000000000000     1.007825032070

  Basis Set: 6-31G
    Blend: 6-31G
  Basis Set: (6-31G AUX)
    Blend: CC-PVDZ-JKFIT
  Basis Set: (6-31G AUX)
    Blend: CC-PVDZ-JKFIT
	 Reference Energy          =     -75.9202139019224944 [Eh]
	 Singles Energy            =      -0.0000000000000000 [Eh]
	 Same-Spin Energy          =      -0.0295974378951055 [Eh]
	 Opposite-Spin Energy      =      -0.0988929722248614 [Eh]
	 Correlation Energy        =      -0.1284904101199669 [Eh]
	 Total Energy              =     -76.0487043120424602 [Eh]

	 ================> DF-SCS-MP2 Energies <==================
	-----------------------------------------------------------
	 SCS Same-Spin Scale       =       0.3333333333333333 [-]
	 SCS Opposite-Spin Scale   =       1.2000000000000000 [-]
	 SCS Same-Spin Energy      =      -0.0098658126317018 [Eh]
	 SCS Opposite-Spin Energy  =      -0.1186715666698337 [Eh]
	 SCS Correlation Energy    =      -0.1285373793015355 [Eh]
	 SCS Total Energy          =     -76.0487512812240283 [Eh]
	-----------------------------------------------------------

  -Total Gradient:
     Atom            X                  Y                   Z
    ------   -----------------  -----------------  -----------------
       1       -0.303467343081     0.106657568575    -0.000000000000
       2       -0.031811751417    -0.062916411423     0.000000000000
       3        0.335279094498    -0.043741157152     0.000000000000

*** Psi4 exiting successfully. Buy a developer a beer!
