                               Psi4 1.2a1.dev429

  ==> Input File <==

--------------------------------------------------------------------------
# density-fitted hartree fock energies and gradients with 6-31g
molecule h2o {
0 1
O 0.0000000000 0.0000000000 0.0000000000
H 0.0000000000 0.0000000000 1.3000000000
H 0.0000000000 0.0000000000 -1.2000000000
}

set basis 6-31g

gradient('mp2')
--------------------------------------------------------------------------

    Molecular point group: c2v
  Charge       = 0
  Multiplicity = 1
  Basis Set: 6-31G
    Blend: 6-31G
  Basis Set: (6-31G AUX)
    Blend: CC-PVDZ-JKFIT

    Orbital Energies (a.u.)
    -----------------------

    Doubly Occupied:

       1A1   -20.505799     2A1    -1.171802     3A1    -0.581518
       1B2    -0.420040     1B1    -0.420040

  @DF-RHF Final Energy:   -75.81544920629574

   => Energetics <=

    Nuclear Repulsion Energy =              6.9959940704872814
    One-Electron Energy =                -119.4244878660993407
    Two-Electron Energy =                  36.6130445893163241
    Total Energy =                        -75.8154492062957388
  Basis Set: (6-31G AUX)
    Blend: CC-PVDZ-RI
    Molecular point group: c2v

    Geometry (in Angstrom), charge = 0, multiplicity = 1:

       Center              X                  Y                   Z               Mass
    ------------   -----------------  -----------------  -----------------  -----------------
           O          0.000000000000     0.000000000000    -0.005595743664    15.994914619560
           H          0.000000000000     0.000000000000     1.294404256336     1.007825032070
           H          0.000000000000     0.000000000000    -1.205595743664     1.007825032070

  Basis Set: 6-31G
    Blend: 6-31G
  Basis Set: (6-31G AUX)
    Blend: CC-PVDZ-JKFIT
  Basis Set: (6-31G AUX)
    Blend: CC-PVDZ-JKFIT
	 Reference Energy          =     -75.8154492062957388 [Eh]
	 Singles Energy            =      -0.0000000000000000 [Eh]
	 Same-Spin Energy          =      -0.0338949918077129 [Eh]
	 Opposite-Spin Energy      =      -0.1063998964627978 [Eh]
	 Correlation Energy        =      -0.1402948882705106 [Eh]
	 Total Energy              =     -75.9557440945662563 [Eh]

	 ================> DF-SCS-MP2 Energies <==================
	-----------------------------------------------------------
	 SCS Same-Spin Scale       =       0.3333333333333333 [-]
	 SCS Opposite-Spin Scale   =       1.2000000000000000 [-]
	 SCS Same-Spin Energy      =      -0.0112983306025710 [Eh]
	 SCS Opposite-Spin Energy  =      -0.1276798757553573 [Eh]
	 SCS Correlation Energy    =      -0.1389782063579283 [Eh]
	 SCS Total Energy          =     -75.9544274126536720 [Eh]
	-----------------------------------------------------------

  -Total Gradient:
     Atom            X                  Y                   Z
    ------   -----------------  -----------------  -----------------
       1        0.000000000000    -0.000000000000    -0.012223062108
       2        0.000000000000     0.000000000000     0.137572145355
       3       -0.000000000000     0.000000000000    -0.125349083247

*** Psi4 exiting successfully. Buy a developer a beer!
