                               Psi4 1.2a1.dev429

  ==> Input File <==

--------------------------------------------------------------------------
# density-fitted hartree fock energies and gradients with 6-31g
molecule h2o {
0 1
O 0.0000000000 0.0000000000 0.0000000000
H 0.0000000000 0.0000000000 0.8000000000
H 0.0000000000 1.2124355653 -0.7000000000
}

set basis 6-31g

gradient('mp2')
--------------------------------------------------------------------------

    Molecular point group: cs
  Charge       = 0
  Multiplicity = 1
  Basis Set: 6-31G
    Blend: 6-31G
  Basis Set: (6-31G AUX)
    Blend: CC-PVDZ-JKFIT

    Orbital Energies (a.u.)
    -----------------------

    Doubly Occupied:

       1Ap   -20.560948     2Ap    -1.345484     3Ap    -0.676861
       4Ap    -0.493804     1App   -0.490217

  @DF-RHF Final Energy:   -75.85341726552052

   => Energetics <=

    Nuclear Repulsion Energy =              8.5900074508979856
    One-Electron Energy =                -121.7522217400239413
    Two-Electron Energy =                  37.3087970236054289
    Total Energy =                        -75.8534172655205339
  Basis Set: (6-31G AUX)
    Blend: CC-PVDZ-RI
    Molecular point group: cs

    Geometry (in Angstrom), charge = 0, multiplicity = 1:

       Center              X                  Y                   Z               Mass
    ------------   -----------------  -----------------  -----------------  -----------------
           O          0.067844786321     0.005595743664     0.000000000000    15.994914619560
           H          0.067844786321    -0.794404256336     0.000000000000     1.007825032070
           H         -1.144590778979     0.705595743664     0.000000000000     1.007825032070

  Basis Set: 6-31G
    Blend: 6-31G
  Basis Set: (6-31G AUX)
    Blend: CC-PVDZ-JKFIT
  Basis Set: (6-31G AUX)
    Blend: CC-PVDZ-JKFIT
	 Reference Energy          =     -75.8534172655205197 [Eh]
	 Singles Energy            =      -0.0000000000000000 [Eh]
	 Same-Spin Energy          =      -0.0315612371765150 [Eh]
	 Opposite-Spin Energy      =      -0.1071101476472229 [Eh]
	 Correlation Energy        =      -0.1386713848237379 [Eh]
	 Total Energy              =     -75.9920886503442574 [Eh]

	 ================> DF-SCS-MP2 Energies <==================
	-----------------------------------------------------------
	 SCS Same-Spin Scale       =       0.3333333333333333 [-]
	 SCS Opposite-Spin Scale   =       1.2000000000000000 [-]
	 SCS Same-Spin Energy      =      -0.0105204123921717 [Eh]
	 SCS Opposite-Spin Energy  =      -0.1285321771766675 [Eh]
	 SCS Correlation Energy    =      -0.1390525895688391 [Eh]
	 SCS Total Energy          =     -75.9924698550893538 [Eh]
	-----------------------------------------------------------

  -Total Gradient:
     Atom            X                  Y                   Z
    ------   -----------------  -----------------  -----------------
       1        0.064456145160    -0.401883565288     0.000000000000
       2        0.029684021011     0.327945342605    -0.000000000000
       3       -0.094140166171     0.073938222683    -0.000000000000

*** Psi4 exiting successfully. Buy a developer a beer!
