                               Psi4 1.2a1.dev429

  ==> Input File <==

--------------------------------------------------------------------------
# density-fitted hartree fock energies and gradients with 6-31g
molecule h20 {
0 1
O 0.0000000000 0.0000000000 0.0000000000
H 0.0000000000 0.0000000000 0.9000000000
H 0.0000000000 0.1215537244 -0.6893654271
}

set basis 6-31g

gradient('hf')
--------------------------------------------------------------------------

    Molecular point group: cs
  Charge       = 0
  Multiplicity = 1
  Basis Set: 6-31G
    Blend: 6-31G
  Basis Set: (6-31G AUX)
    Blend: CC-PVDZ-JKFIT

    Orbital Energies (a.u.)
    -----------------------

    Doubly Occupied:

       1Ap   -20.496646     2Ap    -1.404307     3Ap    -0.892410
       4Ap    -0.498155     1App   -0.496921

  @DF-RHF Final Energy:   -75.83206365280944

   => Energetics <=

    Nuclear Repulsion Energy =             11.0835161972606429
    One-Electron Energy =                -126.2542819237568921
    Two-Electron Energy =                  39.3387020736868109
    Total Energy =                        -75.8320636528094383
    Molecular point group: cs

    Geometry (in Angstrom), charge = 0, multiplicity = 1:

       Center              X                  Y                   Z               Mass
    ------------   -----------------  -----------------  -----------------  -----------------
           O          0.006801834831     0.011786570766     0.000000000000    15.994914619560
           H          0.006801834831    -0.888213429234     0.000000000000     1.007825032070
           H         -0.114751889569     0.701151997866     0.000000000000     1.007825032070

  Basis Set: 6-31G
    Blend: 6-31G
  Basis Set: (6-31G AUX)
    Blend: CC-PVDZ-JKFIT

  -Total Gradient:
     Atom            X                  Y                   Z
    ------   -----------------  -----------------  -----------------
       1       -0.145998013294     0.669168694678     0.000000000000
       2        0.010269093550     0.024554522924     0.000000000000
       3        0.135728919744    -0.693723217603     0.000000000000

*** Psi4 exiting successfully. Buy a developer a beer!
