                               Psi4 1.2a1.dev429

  ==> Input File <==

--------------------------------------------------------------------------
# density-fitted hartree fock energies and gradients with 6-31g
molecule h20 {
0 1
O 0.0000000000 0.0000000000 0.0000000000
H 0.0000000000 0.0000000000 0.7000000000
H 0.0000000000 1.0000000000 0.0000000000
}

set basis 6-31g

gradient('hf')
--------------------------------------------------------------------------

    Molecular point group: cs
  Charge       = 0
  Multiplicity = 1
  Basis Set: 6-31G
    Blend: 6-31G
  Basis Set: (6-31G AUX)
    Blend: CC-PVDZ-JKFIT

    Orbital Energies (a.u.)
    -----------------------

    Doubly Occupied:

       1Ap   -20.548844     2Ap    -1.474149     3Ap    -0.741373
       4Ap    -0.599360     1App   -0.517071

  @DF-RHF Final Energy:   -75.83668323238183

   => Energetics <=

    Nuclear Repulsion Energy =             10.7146760563509478
    One-Electron Energy =                -125.3411230263099441
    Two-Electron Energy =                  38.7897637375771609
    Total Energy =                        -75.8366832323818301
    Molecular point group: cs

    Geometry (in Angstrom), charge = 0, multiplicity = 1:

       Center              X                  Y                   Z               Mass
    ------------   -----------------  -----------------  -----------------  -----------------
           O          0.055957436636     0.039170205645     0.000000000000    15.994914619560
           H          0.055957436636    -0.660829794355     0.000000000000     1.007825032070
           H         -0.944042563364     0.039170205645     0.000000000000     1.007825032070

  Basis Set: 6-31G
    Blend: 6-31G
  Basis Set: (6-31G AUX)
    Blend: CC-PVDZ-JKFIT

  -Total Gradient:
     Atom            X                  Y                   Z
    ------   -----------------  -----------------  -----------------
       1        0.098503473681    -0.698810736890     0.000000000000
       2       -0.069277642871     0.747305087413     0.000000000000
       3       -0.029225830810    -0.048494350523     0.000000000000

*** Psi4 exiting successfully. Buy a developer a beer!
