                               Psi4 1.2a1.dev429

  ==> Input File <==

--------------------------------------------------------------------------
# density-fitted hartree fock energies and gradients with 6-31g
molecule h2o {
0 1
O 0.0000000000 0.0000000000 0.0000000000
H 0.0000000000 0.0000000000 1.4000000000
H 0.0000000000 1.0832885283 -0.1910129954
}

set basis 6-31g

gradient('mp2')
--------------------------------------------------------------------------

    Molecular point group: cs
  Charge       = 0
  Multiplicity = 1
  Basis Set: 6-31G
    Blend: 6-31G
  Basis Set: (6-31G AUX)
    Blend: CC-PVDZ-JKFIT

    Orbital Energies (a.u.)
    -----------------------

    Doubly Occupied:

       1Ap   -20.614830     2Ap    -1.265410     3Ap    -0.593523
       4Ap    -0.508918     1App   -0.499692

  @DF-RHF Final Energy:   -75.88300637955464

   => Energetics <=

    Nuclear Repulsion Energy =              7.1473577874833136
    One-Electron Energy =                -119.0959814312468836
    Two-Electron Energy =                  36.0656172642089174
    Total Energy =                        -75.8830063795546437
  Basis Set: (6-31G AUX)
    Blend: CC-PVDZ-RI
    Molecular point group: cs

    Geometry (in Angstrom), charge = 0, multiplicity = 1:

       Center              X                  Y                   Z               Mass
    ------------   -----------------  -----------------  -----------------  -----------------
           O          0.060618049181     0.067651813704     0.000000000000    15.994914619560
           H          0.060618049181    -1.332348186296     0.000000000000     1.007825032070
           H         -1.022670479119     0.258664809104     0.000000000000     1.007825032070

  Basis Set: 6-31G
    Blend: 6-31G
  Basis Set: (6-31G AUX)
    Blend: CC-PVDZ-JKFIT
  Basis Set: (6-31G AUX)
    Blend: CC-PVDZ-JKFIT
	 Reference Energy          =     -75.8830063795546437 [Eh]
	 Singles Energy            =      -0.0000000000000000 [Eh]
	 Same-Spin Energy          =      -0.0355936987124612 [Eh]
	 Opposite-Spin Energy      =      -0.1215551785445910 [Eh]
	 Correlation Energy        =      -0.1571488772570521 [Eh]
	 Total Energy              =     -76.0401552568117012 [Eh]

	 ================> DF-SCS-MP2 Energies <==================
	-----------------------------------------------------------
	 SCS Same-Spin Scale       =       0.3333333333333333 [-]
	 SCS Opposite-Spin Scale   =       1.2000000000000000 [-]
	 SCS Same-Spin Energy      =      -0.0118645662374871 [Eh]
	 SCS Opposite-Spin Energy  =      -0.1458662142535092 [Eh]
	 SCS Correlation Energy    =      -0.1577307804909962 [Eh]
	 SCS Total Energy          =     -76.0407371600456372 [Eh]
	-----------------------------------------------------------

  -Total Gradient:
     Atom            X                  Y                   Z
    ------   -----------------  -----------------  -----------------
       1        0.057601995528     0.088027157714    -0.000000000000
       2        0.003755953732    -0.103700280913    -0.000000000000
       3       -0.061357949260     0.015673123199     0.000000000000

*** Psi4 exiting successfully. Buy a developer a beer!
