                               Psi4 1.2a1.dev429

  ==> Input File <==

--------------------------------------------------------------------------
# density-fitted hartree fock energies and gradients with 6-31g
molecule h2o {
0 1
O 0.0000000000 0.0000000000 0.0000000000
H 0.0000000000 0.0000000000 1.1000000000
H 0.0000000000 0.0000000000 -1.3000000000
}

set basis 6-31g

gradient('mp2')
--------------------------------------------------------------------------

    Molecular point group: c2v
  Charge       = 0
  Multiplicity = 1
  Basis Set: 6-31G
    Blend: 6-31G
  Basis Set: (6-31G AUX)
    Blend: CC-PVDZ-JKFIT

    Orbital Energies (a.u.)
    -----------------------

    Doubly Occupied:

       1A1   -20.503980     2A1    -1.190393     3A1    -0.608096
       1B2    -0.425451     1B1    -0.425451

  @DF-RHF Final Energy:   -75.83930988290815

   => Energetics <=

    Nuclear Repulsion Energy =              7.3255271503819630
    One-Electron Energy =                -120.0229334731644428
    Two-Electron Energy =                  36.8580964398743305
    Total Energy =                        -75.8393098829081538
  Basis Set: (6-31G AUX)
    Blend: CC-PVDZ-RI
    Molecular point group: c2v

    Geometry (in Angstrom), charge = 0, multiplicity = 1:

       Center              X                  Y                   Z               Mass
    ------------   -----------------  -----------------  -----------------  -----------------
           O          0.000000000000     0.000000000000     0.011191487327    15.994914619560
           H          0.000000000000     0.000000000000     1.111191487327     1.007825032070
           H          0.000000000000     0.000000000000    -1.288808512673     1.007825032070

  Basis Set: 6-31G
    Blend: 6-31G
  Basis Set: (6-31G AUX)
    Blend: CC-PVDZ-JKFIT
  Basis Set: (6-31G AUX)
    Blend: CC-PVDZ-JKFIT
	 Reference Energy          =     -75.8393098829081538 [Eh]
	 Singles Energy            =      -0.0000000000000000 [Eh]
	 Same-Spin Energy          =      -0.0334748295151443 [Eh]
	 Opposite-Spin Energy      =      -0.1047168021201206 [Eh]
	 Correlation Energy        =      -0.1381916316352648 [Eh]
	 Total Energy              =     -75.9775015145434196 [Eh]

	 ================> DF-SCS-MP2 Energies <==================
	-----------------------------------------------------------
	 SCS Same-Spin Scale       =       0.3333333333333333 [-]
	 SCS Opposite-Spin Scale   =       1.2000000000000000 [-]
	 SCS Same-Spin Energy      =      -0.0111582765050481 [Eh]
	 SCS Opposite-Spin Energy  =      -0.1256601625441447 [Eh]
	 SCS Correlation Energy    =      -0.1368184390491927 [Eh]
	 SCS Total Energy          =     -75.9761283219573471 [Eh]
	-----------------------------------------------------------

  -Total Gradient:
     Atom            X                  Y                   Z
    ------   -----------------  -----------------  -----------------
       1        0.000000000000    -0.000000000000     0.041457459556
       2       -0.000000000000     0.000000000000     0.101089117834
       3       -0.000000000000     0.000000000000    -0.142546577390

*** Psi4 exiting successfully. Buy a developer a beer!
