                               Psi4 1.2.1 release

  ==> Input File <==

--------------------------------------------------------------------------
# density fitted hartree fock
molecule h2o {
0 1
H 0.0000000000 0.0000000000 1.1125000000
H 0.0000000000 0.8500000000 0.0000000000
O 0.0000000000 0.0000000000 0.0000000000
}

set basis 6-31g
energy('hf')

--------------------------------------------------------------------------

    Molecular point group: cs

    Geometry (in Angstrom), charge = 0, multiplicity = 1:

       Center              X                  Y                   Z               Mass
    ------------   -----------------  -----------------  -----------------  -----------------
         H            0.047563821141    -1.050247351742     0.000000000000     1.007825032070
         H           -0.802436178859     0.062252648258     0.000000000000     1.007825032070
         O            0.047563821141     0.062252648258     0.000000000000    15.994914619560

  Charge       = 0
  Multiplicity = 1
  Basis Set: 6-31G
    Blend: 6-31G
  Basis Set: (6-31G AUX)
    Blend: CC-PVDZ-JKFIT

    Orbital Energies [Eh]
    ---------------------

    Doubly Occupied:

       1Ap   -20.574020     2Ap    -1.377944     3Ap    -0.679184
       4Ap    -0.576959     1App   -0.508880

  @DF-RHF Final Energy:   -75.94055343517304

   => Energetics <=

    Nuclear Repulsion Energy =              9.1637792827535183
    One-Electron Energy =                -122.7746904467199300
    Two-Electron Energy =                  37.6703577287933626
    Total Energy =                        -75.9405534351730438

  Dipole Moment: [D]
     X:    -2.0177      Y:    -2.0001      Z:     0.0000     Total:     2.8410

*** Psi4 exiting successfully. Buy a developer a beer!
