                               Psi4 1.2a1.dev429

  ==> Input File <==

--------------------------------------------------------------------------
# density-fitted hartree fock energies and gradients with 6-31g
molecule h20 {
0 1
O 0.0000000000 0.0000000000 0.0000000000
H 0.0000000000 0.0000000000 1.0000000000
H 0.0000000000 0.4500000000 -0.7794228634
}

set basis 6-31g

gradient('hf')
--------------------------------------------------------------------------

    Molecular point group: cs
  Charge       = 0
  Multiplicity = 1
  Basis Set: 6-31G
    Blend: 6-31G
  Basis Set: (6-31G AUX)
    Blend: CC-PVDZ-JKFIT

    Orbital Energies (a.u.)
    -----------------------

    Doubly Occupied:

       1Ap   -20.518674     2Ap    -1.314563     3Ap    -0.764973
       4Ap    -0.485361     1App   -0.476523

  @DF-RHF Final Energy:   -75.95395371961152

   => Energetics <=

    Nuclear Repulsion Energy =              9.2255256515443413
    One-Electron Energy =                -123.2387704217031512
    Two-Electron Energy =                  38.0592910505472872
    Total Energy =                        -75.9539537196115191
    Molecular point group: cs

    Geometry (in Angstrom), charge = 0, multiplicity = 1:

       Center              X                  Y                   Z               Mass
    ------------   -----------------  -----------------  -----------------  -----------------
           O          0.025180846486     0.012342931145     0.000000000000    15.994914619560
           H          0.025180846486    -0.987657068855     0.000000000000     1.007825032070
           H         -0.424819153514     0.791765794545     0.000000000000     1.007825032070

  Basis Set: 6-31G
    Blend: 6-31G
  Basis Set: (6-31G AUX)
    Blend: CC-PVDZ-JKFIT

  -Total Gradient:
     Atom            X                  Y                   Z
    ------   -----------------  -----------------  -----------------
       1       -0.079172440046     0.097051858410     0.000000000000
       2        0.028159619929    -0.071271995357     0.000000000000
       3        0.051012820117    -0.025779863053     0.000000000000

*** Psi4 exiting successfully. Buy a developer a beer!
