                               Psi4 1.2a1.dev429

  ==> Input File <==

--------------------------------------------------------------------------
# density-fitted hartree fock energies and gradients with 6-31g
molecule h2o {
0 1
O 0.0000000000 0.0000000000 0.0000000000
H 0.0000000000 0.0000000000 1.5000000000
H 0.0000000000 0.1562833599 -0.8863269777
}

set basis 6-31g

gradient('mp2')
--------------------------------------------------------------------------

    Molecular point group: cs
  Charge       = 0
  Multiplicity = 1
  Basis Set: 6-31G
    Blend: 6-31G
  Basis Set: (6-31G AUX)
    Blend: CC-PVDZ-JKFIT

    Orbital Energies (a.u.)
    -----------------------

    Doubly Occupied:

       1Ap   -20.491912     2Ap    -1.231536     3Ap    -0.614134
       1App   -0.426129     4Ap    -0.422204

  @DF-RHF Final Energy:   -75.80001271551524

   => Energetics <=

    Nuclear Repulsion Energy =              7.7473556741637051
    One-Electron Energy =                -120.7229059934748108
    Two-Electron Energy =                  37.1755376037958669
    Total Energy =                        -75.8000127155152370
  Basis Set: (6-31G AUX)
    Blend: CC-PVDZ-RI
    Molecular point group: cs

    Geometry (in Angstrom), charge = 0, multiplicity = 1:

       Center              X                  Y                   Z               Mass
    ------------   -----------------  -----------------  -----------------  -----------------
           O          0.008745216209     0.034339569261     0.000000000000    15.994914619560
           H          0.008745216209    -1.465660430739     0.000000000000     1.007825032070
           H         -0.147538143691     0.920666546961     0.000000000000     1.007825032070

  Basis Set: 6-31G
    Blend: 6-31G
  Basis Set: (6-31G AUX)
    Blend: CC-PVDZ-JKFIT
  Basis Set: (6-31G AUX)
    Blend: CC-PVDZ-JKFIT
	 Reference Energy          =     -75.8000127155152370 [Eh]
	 Singles Energy            =      -0.0000000000000000 [Eh]
	 Same-Spin Energy          =      -0.0334771096772250 [Eh]
	 Opposite-Spin Energy      =      -0.1068249494662086 [Eh]
	 Correlation Energy        =      -0.1403020591434336 [Eh]
	 Total Energy              =     -75.9403147746586740 [Eh]

	 ================> DF-SCS-MP2 Energies <==================
	-----------------------------------------------------------
	 SCS Same-Spin Scale       =       0.3333333333333333 [-]
	 SCS Opposite-Spin Scale   =       1.2000000000000000 [-]
	 SCS Same-Spin Energy      =      -0.0111590365590750 [Eh]
	 SCS Opposite-Spin Energy  =      -0.1281899393594503 [Eh]
	 SCS Correlation Energy    =      -0.1393489759185253 [Eh]
	 SCS Total Energy          =     -75.9393616914337599 [Eh]
	-----------------------------------------------------------

  -Total Gradient:
     Atom            X                  Y                   Z
    ------   -----------------  -----------------  -----------------
       1       -0.072079188629     0.208653229356    -0.000000000000
       2        0.021852554958    -0.133543588182     0.000000000000
       3        0.050226633671    -0.075109641174     0.000000000000

*** Psi4 exiting successfully. Buy a developer a beer!
