                               Psi4 1.3.1 release

  ==> Input File <==

--------------------------------------------------------------------------
# density fitted hartree fock
molecule h2o {
0 1
H 0.0000000000 0.0000000000 1.0500000000
H 0.0000000000 1.0033514461 -0.3094929331
O 0.0000000000 0.0000000000 0.0000000000
}

set basis 6-31g
energy('hf')

--------------------------------------------------------------------------

    Molecular point group: c2v

    Geometry (in Angstrom), charge = 0, multiplicity = 1:

       Center              X                  Y                   Z               Mass
    ------------   -----------------  -----------------  -----------------  -----------------
         H            0.000000000000    -0.844827668750     0.553731018504     1.007825032230
         H           -0.000000000000     0.844827668750     0.553731018504     1.007825032230
         O            0.000000000000     0.000000000000    -0.069780176368    15.994914619570

  Charge       = 0
  Multiplicity = 1
  Basis Set: 6-31G
    Blend: 6-31G
  Basis Set: (6-31G AUX)
    Blend: CC-PVDZ-JKFIT

    Orbital Energies [Eh]
    ---------------------

    Doubly Occupied:

       1A1   -20.576345     2A1    -1.309868     1B2    -0.665092
       3A1    -0.541871     1B1    -0.495916

  @DF-RHF Final Energy:   -75.96909351216428

   => Energetics <=

    Nuclear Repulsion Energy =              8.3768392158024376
    One-Electron Energy =                -121.5136727326214725
    Two-Electron Energy =                  37.1677400046547604
    Total Energy =                        -75.9690935121642781

  Dipole Moment: [D]
     X:     0.0000      Y:     0.0000      Z:     2.6082     Total:     2.6082

*** Psi4 exiting successfully. Buy a developer a beer!
