                               Psi4 1.2.1 release

  ==> Input File <==

--------------------------------------------------------------------------
# density fitted hartree fock
molecule h2o {
0 1
H 0.0000000000 0.0000000000 1.0250000000
H 0.0000000000 0.9900739719 -0.2652895212
O 0.0000000000 0.0000000000 0.0000000000
}

set basis 6-31g
energy('hf')

--------------------------------------------------------------------------

    Molecular point group: c2v

    Geometry (in Angstrom), charge = 0, multiplicity = 1:

       Center              X                  Y                   Z               Mass
    ------------   -----------------  -----------------  -----------------  -----------------
         H            0.000000000000    -0.813187173772     0.554147770091     1.007825032070
         H           -0.000000000000     0.813187173772     0.554147770091     1.007825032070
         O            0.000000000000     0.000000000000    -0.069832694634    15.994914619560

  Charge       = 0
  Multiplicity = 1
  Basis Set: 6-31G
    Blend: 6-31G
  Basis Set: (6-31G AUX)
    Blend: CC-PVDZ-JKFIT

    Orbital Energies [Eh]
    ---------------------

    Doubly Occupied:

       1A1   -20.573377     2A1    -1.322682     1B2    -0.674681
       3A1    -0.549620     1B1    -0.498017

  @DF-RHF Final Energy:   -75.97538509959573

   => Energetics <=

    Nuclear Repulsion Energy =              8.5856994872613157
    One-Electron Energy =                -121.8854200325586987
    Two-Electron Energy =                  37.3243354457016636
    Total Energy =                        -75.9753850995957265

  Dipole Moment: [D]
     X:     0.0000      Y:     0.0000      Z:     2.6415     Total:     2.6415

*** Psi4 exiting successfully. Buy a developer a beer!
