                               Psi4 1.2a1.dev429

  ==> Input File <==

--------------------------------------------------------------------------
# density-fitted hartree fock energies and gradients with 6-31g
molecule o2 {
0 3
O 0.0000000000 0.0000000000 0.0000000000
O 0.0000000000 0.0000000000 0.8141414141
}

set basis 6-31g
set reference rohf

gradient('scf')
--------------------------------------------------------------------------

    Molecular point group: d2h
  Charge       = 0
  Multiplicity = 3
  Basis Set: 6-31G
    Blend: 6-31G
  Basis Set: (6-31G AUX)
    Blend: CC-PVDZ-JKFIT

    Orbital Energies (a.u.)
    -----------------------

    Doubly Occupied:

       1Ag   -20.722953     1B1u  -20.710194     2Ag    -2.215397
       1B3u   -0.993761     1B2u   -0.993761     2B1u   -0.946749
       3Ag    -0.837886

    Singly Occupied:

       1B3g    0.018625     1B2g    0.018625

  @DF-ROHF Final Energy:  -148.82627724636086

   => Energetics <=

    Nuclear Repulsion Energy =             41.5988435954937330
    One-Electron Energy =                -285.3929106411651446
    Two-Electron Energy =                  94.9677897993105660
    Total Energy =                       -148.8262772463608314
    Molecular point group: d2h

    Geometry (in Angstrom), charge = 0, multiplicity = 3:

       Center              X                  Y                   Z               Mass
    ------------   -----------------  -----------------  -----------------  -----------------
           O          0.000000000000     0.000000000000    -0.407070707050    15.994914619560
           O          0.000000000000     0.000000000000     0.407070707050    15.994914619560

  Basis Set: 6-31G
    Blend: 6-31G
  Basis Set: (6-31G AUX)
    Blend: CC-PVDZ-JKFIT

  -Total Gradient:
     Atom            X                  Y                   Z
    ------   -----------------  -----------------  -----------------
       1        0.000000000000    -0.000000000000     3.149319278745
       2        0.000000000000     0.000000000000    -3.149319278745

*** Psi4 exiting successfully. Buy a developer a beer!
