                               Psi4 1.2a1.dev429

  ==> Input File <==

--------------------------------------------------------------------------
# density-fitted hartree fock energies and gradients with 6-31g
molecule h2o {
0 1
O 0.0000000000 0.0000000000 0.0000000000
H 0.0000000000 0.0000000000 1.2000000000
H 0.0000000000 1.4095389312 -0.5130302150
}

set basis 6-31g

gradient('mp2')
--------------------------------------------------------------------------

    Molecular point group: cs
  Charge       = 0
  Multiplicity = 1
  Basis Set: 6-31G
    Blend: 6-31G
  Basis Set: (6-31G AUX)
    Blend: CC-PVDZ-JKFIT

    Orbital Energies (a.u.)
    -----------------------

    Doubly Occupied:

       1Ap   -20.620504     2Ap    -1.236756     3Ap    -0.565662
       1App   -0.494162     4Ap    -0.481069

  @DF-RHF Final Energy:   -75.83537226236146

   => Energetics <=

    Nuclear Repulsion Energy =              6.5886671669465393
    One-Electron Energy =                -118.0517733651352899
    Two-Electron Energy =                  35.6277339358272940
    Total Energy =                        -75.8353722623614601
  Basis Set: (6-31G AUX)
    Blend: CC-PVDZ-RI
    Molecular point group: cs

    Geometry (in Angstrom), charge = 0, multiplicity = 1:

       Center              X                  Y                   Z               Mass
    ------------   -----------------  -----------------  -----------------  -----------------
           O          0.078874185429     0.038441068215     0.000000000000    15.994914619560
           H          0.078874185429    -1.161558931785     0.000000000000     1.007825032070
           H         -1.330664745771     0.551471283215     0.000000000000     1.007825032070

  Basis Set: 6-31G
    Blend: 6-31G
  Basis Set: (6-31G AUX)
    Blend: CC-PVDZ-JKFIT
  Basis Set: (6-31G AUX)
    Blend: CC-PVDZ-JKFIT
	 Reference Energy          =     -75.8353722623614601 [Eh]
	 Singles Energy            =      -0.0000000000000000 [Eh]
	 Same-Spin Energy          =      -0.0371200385225207 [Eh]
	 Opposite-Spin Energy      =      -0.1291761257899797 [Eh]
	 Correlation Energy        =      -0.1662961643125004 [Eh]
	 Total Energy              =     -76.0016684266739588 [Eh]

	 ================> DF-SCS-MP2 Energies <==================
	-----------------------------------------------------------
	 SCS Same-Spin Scale       =       0.3333333333333333 [-]
	 SCS Opposite-Spin Scale   =       1.2000000000000000 [-]
	 SCS Same-Spin Energy      =      -0.0123733461741736 [Eh]
	 SCS Opposite-Spin Energy  =      -0.1550113509479756 [Eh]
	 SCS Correlation Energy    =      -0.1673846971221492 [Eh]
	 SCS Total Energy          =     -76.0027569594836052 [Eh]
	-----------------------------------------------------------

  -Total Gradient:
     Atom            X                  Y                   Z
    ------   -----------------  -----------------  -----------------
       1        0.071507000122     0.042324165309    -0.000000000000
       2        0.017113966596    -0.089149400989     0.000000000000
       3       -0.088620966718     0.046825235680     0.000000000000

*** Psi4 exiting successfully. Buy a developer a beer!
