                               Psi4 1.3.1 release

  ==> Input File <==

--------------------------------------------------------------------------
# density fitted hartree fock
molecule h2o {
0 1
H 0.0000000000 0.0000000000 1.2000000000
H 0.0000000000 1.1966445566 -0.0896761123
O 0.0000000000 0.0000000000 0.0000000000
}

set basis 6-31g
energy('hf')

--------------------------------------------------------------------------

    Molecular point group: c2v

    Geometry (in Angstrom), charge = 0, multiplicity = 1:

       Center              X                  Y                   Z               Mass
    ------------   -----------------  -----------------  -----------------  -----------------
         H            0.000000000000    -0.879662246189     0.724861550407     1.007825032230
         H           -0.000000000000     0.879662246189     0.724861550407     1.007825032230
         O            0.000000000000     0.000000000000    -0.091345734913    15.994914619570

  Charge       = 0
  Multiplicity = 1
  Basis Set: 6-31G
    Blend: 6-31G
  Basis Set: (6-31G AUX)
    Blend: CC-PVDZ-JKFIT

    Orbital Energies [Eh]
    ---------------------

    Doubly Occupied:

       1A1   -20.614436     2A1    -1.271509     1B2    -0.586389
       3A1    -0.541200     1B1    -0.501881

  @DF-RHF Final Energy:   -75.90933759805823

   => Energetics <=

    Nuclear Repulsion Energy =              7.3564804563907167
    One-Electron Energy =                -119.5008076226082778
    Two-Electron Energy =                  36.2349895681593281
    Total Energy =                        -75.9093375980582437

  Dipole Moment: [D]
     X:     0.0000      Y:     0.0000      Z:     2.7951     Total:     2.7951

*** Psi4 exiting successfully. Buy a developer a beer!
