                               Psi4 1.2a1.dev429

  ==> Input File <==

--------------------------------------------------------------------------
# density-fitted hartree fock energies and gradients with 6-31g
molecule h2o {
0 1
O 0.0000000000 0.0000000000 0.0000000000
H 0.0000000000 0.0000000000 0.8000000000
H 0.0000000000 1.4095389312 -0.5130302150
}

set basis 6-31g

gradient('mp2')
--------------------------------------------------------------------------

    Molecular point group: cs
  Charge       = 0
  Multiplicity = 1
  Basis Set: 6-31G
    Blend: 6-31G
  Basis Set: (6-31G AUX)
    Blend: CC-PVDZ-JKFIT

    Orbital Energies (a.u.)
    -----------------------

    Doubly Occupied:

       1Ap   -20.576590     2Ap    -1.352930     3Ap    -0.666189
       1App   -0.498207     4Ap    -0.490663

  @DF-RHF Final Energy:   -75.83327978063613

   => Energetics <=

    Nuclear Repulsion Energy =              8.3887542437749101
    One-Electron Energy =                -121.2749094296030705
    Two-Electron Energy =                  37.0528754051920259
    Total Energy =                        -75.8332797806361327
  Basis Set: (6-31G AUX)
    Blend: CC-PVDZ-RI
    Molecular point group: cs

    Geometry (in Angstrom), charge = 0, multiplicity = 1:

       Center              X                  Y                   Z               Mass
    ------------   -----------------  -----------------  -----------------  -----------------
           O          0.078874185429     0.016058093561     0.000000000000    15.994914619560
           H          0.078874185429    -0.783941906439     0.000000000000     1.007825032070
           H         -1.330664745771     0.529088308561     0.000000000000     1.007825032070

  Basis Set: 6-31G
    Blend: 6-31G
  Basis Set: (6-31G AUX)
    Blend: CC-PVDZ-JKFIT
  Basis Set: (6-31G AUX)
    Blend: CC-PVDZ-JKFIT
	 Reference Energy          =     -75.8332797806361327 [Eh]
	 Singles Energy            =      -0.0000000000000000 [Eh]
	 Same-Spin Energy          =      -0.0319117207757389 [Eh]
	 Opposite-Spin Energy      =      -0.1116431943901669 [Eh]
	 Correlation Energy        =      -0.1435549151659058 [Eh]
	 Total Energy              =     -75.9768346958020402 [Eh]

	 ================> DF-SCS-MP2 Energies <==================
	-----------------------------------------------------------
	 SCS Same-Spin Scale       =       0.3333333333333333 [-]
	 SCS Opposite-Spin Scale   =       1.2000000000000000 [-]
	 SCS Same-Spin Energy      =      -0.0106372402585796 [Eh]
	 SCS Opposite-Spin Energy  =      -0.1339718332682003 [Eh]
	 SCS Correlation Energy    =      -0.1446090735267799 [Eh]
	 SCS Total Energy          =     -75.9778888541629129 [Eh]
	-----------------------------------------------------------

  -Total Gradient:
     Atom            X                  Y                   Z
    ------   -----------------  -----------------  -----------------
       1        0.081668213074    -0.379883377584    -0.000000000000
       2        0.017364577702     0.333982927012     0.000000000000
       3       -0.099032790776     0.045900450572     0.000000000000

*** Psi4 exiting successfully. Buy a developer a beer!
