                               Psi4 1.2a1.dev429

  ==> Input File <==

--------------------------------------------------------------------------
# density-fitted hartree fock energies and gradients with 6-31g
molecule h2o {
0 1
O 0.0000000000 0.0000000000 0.0000000000
H 0.0000000000 0.0000000000 0.8000000000
H 0.0000000000 1.1817693036 -0.2083778132
}

set basis 6-31g

gradient('mp2')
--------------------------------------------------------------------------

    Molecular point group: cs
  Charge       = 0
  Multiplicity = 1
  Basis Set: 6-31G
    Blend: 6-31G
  Basis Set: (6-31G AUX)
    Blend: CC-PVDZ-JKFIT

    Orbital Energies (a.u.)
    -----------------------

    Doubly Occupied:

       1Ap   -20.568841     2Ap    -1.378474     3Ap    -0.692852
       4Ap    -0.550397     1App   -0.505054

  @DF-RHF Final Energy:   -75.90874014834989

   => Energetics <=

    Nuclear Repulsion Energy =              9.1602526352977502
    One-Electron Energy =                -122.7467467071411562
    Two-Electron Energy =                  37.6777539234935048
    Total Energy =                        -75.9087401483498923
  Basis Set: (6-31G AUX)
    Blend: CC-PVDZ-RI
    Molecular point group: cs

    Geometry (in Angstrom), charge = 0, multiplicity = 1:

       Center              X                  Y                   Z               Mass
    ------------   -----------------  -----------------  -----------------  -----------------
           O          0.066128780925     0.033105661030     0.000000000000    15.994914619560
           H          0.066128780925    -0.766894338970     0.000000000000     1.007825032070
           H         -1.115640522675     0.241483474230     0.000000000000     1.007825032070

  Basis Set: 6-31G
    Blend: 6-31G
  Basis Set: (6-31G AUX)
    Blend: CC-PVDZ-JKFIT
  Basis Set: (6-31G AUX)
    Blend: CC-PVDZ-JKFIT
	 Reference Energy          =     -75.9087401483498923 [Eh]
	 Singles Energy            =      -0.0000000000000000 [Eh]
	 Same-Spin Energy          =      -0.0302621258580009 [Eh]
	 Opposite-Spin Energy      =      -0.1013583887758363 [Eh]
	 Correlation Energy        =      -0.1316205146338373 [Eh]
	 Total Energy              =     -76.0403606629837299 [Eh]

	 ================> DF-SCS-MP2 Energies <==================
	-----------------------------------------------------------
	 SCS Same-Spin Scale       =       0.3333333333333333 [-]
	 SCS Opposite-Spin Scale   =       1.2000000000000000 [-]
	 SCS Same-Spin Energy      =      -0.0100873752860003 [Eh]
	 SCS Opposite-Spin Energy  =      -0.1216300665310036 [Eh]
	 SCS Correlation Energy    =      -0.1317174418170039 [Eh]
	 SCS Total Energy          =     -76.0404575901668949 [Eh]
	-----------------------------------------------------------

  -Total Gradient:
     Atom            X                  Y                   Z
    ------   -----------------  -----------------  -----------------
       1        0.113579471667    -0.339573991196    -0.000000000000
       2       -0.013577964780     0.331132646705     0.000000000000
       3       -0.100001506887     0.008441344490    -0.000000000000

*** Psi4 exiting successfully. Buy a developer a beer!
