                               Psi4 1.2a1.dev429

  ==> Input File <==

--------------------------------------------------------------------------
# density-fitted hartree fock energies and gradients with 6-31g
molecule h2o {
0 1
O 0.0000000000 0.0000000000 0.0000000000
H 0.0000000000 0.0000000000 1.1000000000
H 0.0000000000 0.7713451316 -0.9192533317
}

set basis 6-31g

gradient('mp2')
--------------------------------------------------------------------------

    Molecular point group: cs
  Charge       = 0
  Multiplicity = 1
  Basis Set: 6-31G
    Blend: 6-31G
  Basis Set: (6-31G AUX)
    Blend: CC-PVDZ-JKFIT

    Orbital Energies (a.u.)
    -----------------------

    Doubly Occupied:

       1Ap   -20.553703     2Ap    -1.242284     3Ap    -0.639853
       4Ap    -0.470331     1App   -0.466058

  @DF-RHF Final Energy:   -75.90386669780899

   => Energetics <=

    Nuclear Repulsion Energy =              7.6212218025146896
    One-Electron Energy =                -120.3057176389993401
    Two-Electron Energy =                  36.7806291386756499
    Total Energy =                        -75.9038666978089935
  Basis Set: (6-31G AUX)
    Blend: CC-PVDZ-RI
    Molecular point group: cs

    Geometry (in Angstrom), charge = 0, multiplicity = 1:

       Center              X                  Y                   Z               Mass
    ------------   -----------------  -----------------  -----------------  -----------------
           O          0.043162496326     0.010114120239     0.000000000000    15.994914619560
           H          0.043162496326    -1.089885879761     0.000000000000     1.007825032070
           H         -0.728182635274     0.929367451939     0.000000000000     1.007825032070

  Basis Set: 6-31G
    Blend: 6-31G
  Basis Set: (6-31G AUX)
    Blend: CC-PVDZ-JKFIT
  Basis Set: (6-31G AUX)
    Blend: CC-PVDZ-JKFIT
	 Reference Energy          =     -75.9038666978089935 [Eh]
	 Singles Energy            =      -0.0000000000000000 [Eh]
	 Same-Spin Energy          =      -0.0335515101830863 [Eh]
	 Opposite-Spin Energy      =      -0.1087816901572334 [Eh]
	 Correlation Energy        =      -0.1423332003403197 [Eh]
	 Total Energy              =     -76.0461998981493110 [Eh]

	 ================> DF-SCS-MP2 Energies <==================
	-----------------------------------------------------------
	 SCS Same-Spin Scale       =       0.3333333333333333 [-]
	 SCS Opposite-Spin Scale   =       1.2000000000000000 [-]
	 SCS Same-Spin Energy      =      -0.0111838367276954 [Eh]
	 SCS Opposite-Spin Energy  =      -0.1305380281886800 [Eh]
	 SCS Correlation Energy    =      -0.1417218649163755 [Eh]
	 SCS Total Energy          =     -76.0455885627253707 [Eh]
	-----------------------------------------------------------

  -Total Gradient:
     Atom            X                  Y                   Z
    ------   -----------------  -----------------  -----------------
       1        0.005972677441    -0.023702645865    -0.000000000000
       2        0.038791339765    -0.084964593314     0.000000000000
       3       -0.044764017206     0.108667239179    -0.000000000000

*** Psi4 exiting successfully. Buy a developer a beer!
