                               Psi4 1.2a1.dev429

  ==> Input File <==

--------------------------------------------------------------------------
# density-fitted hartree fock energies and gradients with 6-31g
molecule h2o {
0 1
O 0.0000000000 0.0000000000 0.0000000000
H 0.0000000000 0.0000000000 1.0000000000
H 0.0000000000 1.0392304845 -0.6000000000
}

set basis 6-31g

gradient('mp2')
--------------------------------------------------------------------------

    Molecular point group: cs
  Charge       = 0
  Multiplicity = 1
  Basis Set: 6-31G
    Blend: 6-31G
  Basis Set: (6-31G AUX)
    Blend: CC-PVDZ-JKFIT

    Orbital Energies (a.u.)
    -----------------------

    Doubly Occupied:

       1Ap   -20.571116     2Ap    -1.285719     3Ap    -0.657239
       4Ap    -0.508845     1App   -0.486188

  @DF-RHF Final Energy:   -75.93952977702250

   => Energetics <=

    Nuclear Repulsion Energy =              8.0386299479470207
    One-Electron Energy =                -120.9381065498018586
    Two-Electron Energy =                  36.9599468248323433
    Total Energy =                        -75.9395297770225000
  Basis Set: (6-31G AUX)
    Blend: CC-PVDZ-RI
    Molecular point group: cs

    Geometry (in Angstrom), charge = 0, multiplicity = 1:

       Center              X                  Y                   Z               Mass
    ------------   -----------------  -----------------  -----------------  -----------------
           O          0.058152673987     0.022382974654     0.000000000000    15.994914619560
           H          0.058152673987    -0.977617025346     0.000000000000     1.007825032070
           H         -0.981077810513     0.622382974654     0.000000000000     1.007825032070

  Basis Set: 6-31G
    Blend: 6-31G
  Basis Set: (6-31G AUX)
    Blend: CC-PVDZ-JKFIT
  Basis Set: (6-31G AUX)
    Blend: CC-PVDZ-JKFIT
	 Reference Energy          =     -75.9395297770225000 [Eh]
	 Singles Energy            =      -0.0000000000000000 [Eh]
	 Same-Spin Energy          =      -0.0327142698034541 [Eh]
	 Opposite-Spin Energy      =      -0.1074555723542270 [Eh]
	 Correlation Energy        =      -0.1401698421576811 [Eh]
	 Total Energy              =     -76.0796996191801753 [Eh]

	 ================> DF-SCS-MP2 Energies <==================
	-----------------------------------------------------------
	 SCS Same-Spin Scale       =       0.3333333333333333 [-]
	 SCS Opposite-Spin Scale   =       1.2000000000000000 [-]
	 SCS Same-Spin Energy      =      -0.0109047566011514 [Eh]
	 SCS Opposite-Spin Energy  =      -0.1289466868250725 [Eh]
	 SCS Correlation Energy    =      -0.1398514434262238 [Eh]
	 SCS Total Energy          =     -76.0793812204487239 [Eh]
	-----------------------------------------------------------

  -Total Gradient:
     Atom            X                  Y                   Z
    ------   -----------------  -----------------  -----------------
       1        0.059525014646    -0.049722347681     0.000000000000
       2        0.023878248139    -0.021407403002    -0.000000000000
       3       -0.083403262785     0.071129750683    -0.000000000000

*** Psi4 exiting successfully. Buy a developer a beer!
