                               Psi4 1.3.1 release

  ==> Input File <==

--------------------------------------------------------------------------
# density fitted hartree fock
molecule h2o {
0 1
H 0.0000000000 0.0000000000 1.1125000000
H 0.0000000000 0.8427281322 -0.1109472634
O 0.0000000000 0.0000000000 0.0000000000
}

set basis 6-31g
energy('hf')

--------------------------------------------------------------------------

    Molecular point group: cs

    Geometry (in Angstrom), charge = 0, multiplicity = 1:

       Center              X                  Y                   Z               Mass
    ------------   -----------------  -----------------  -----------------  -----------------
         H            0.047156906066    -1.056455676196     0.000000000000     1.007825032230
         H           -0.795571226134     0.166991587204     0.000000000000     1.007825032230
         O            0.047156906066     0.056044323804     0.000000000000    15.994914619570

  Charge       = 0
  Multiplicity = 1
  Basis Set: 6-31G
    Blend: 6-31G
  Basis Set: (6-31G AUX)
    Blend: CC-PVDZ-JKFIT

    Orbital Energies [Eh]
    ---------------------

    Doubly Occupied:

       1Ap   -20.568923     2Ap    -1.369315     3Ap    -0.690925
       4Ap    -0.564608     1App   -0.505243

  @DF-RHF Final Energy:   -75.94764755209181

   => Energetics <=

    Nuclear Repulsion Energy =              9.1420145024748898
    One-Electron Energy =                -122.7812889467706157
    Two-Electron Energy =                  37.6916268922039137
    Total Energy =                        -75.9476475520918086

  Dipole Moment: [D]
     X:    -2.0264      Y:    -1.8416      Z:     0.0000     Total:     2.7382

*** Psi4 exiting successfully. Buy a developer a beer!
