                               Psi4 1.3.1 release

  ==> Input File <==

--------------------------------------------------------------------------
# density fitted hartree fock
molecule h2o {
0 1
H 0.0000000000 0.0000000000 1.1000000000
H 0.0000000000 1.1000000000 0.0000000000
O 0.0000000000 0.0000000000 0.0000000000
}

set basis 6-31g
energy('hf')

--------------------------------------------------------------------------

    Molecular point group: c2v

    Geometry (in Angstrom), charge = 0, multiplicity = 1:

       Center              X                  Y                   Z               Mass
    ------------   -----------------  -----------------  -----------------  -----------------
         H            0.000000000000    -0.777817459305     0.690768116906     1.007825032230
         H           -0.000000000000     0.777817459305     0.690768116906     1.007825032230
         O            0.000000000000     0.000000000000    -0.087049342399    15.994914619570

  Charge       = 0
  Multiplicity = 1
  Basis Set: 6-31G
    Blend: 6-31G
  Basis Set: (6-31G AUX)
    Blend: CC-PVDZ-JKFIT

    Orbital Energies [Eh]
    ---------------------

    Doubly Occupied:

       1A1   -20.599482     2A1    -1.306830     1B2    -0.618211
       3A1    -0.565969     1B1    -0.504516

  @DF-RHF Final Energy:   -75.94595538428990

   => Energetics <=

    Nuclear Repulsion Energy =              8.0372910589401236
    One-Electron Energy =                -120.7764749720787307
    Two-Electron Energy =                  36.7932285288487009
    Total Energy =                        -75.9459553842899027

  Dipole Moment: [D]
     X:     0.0000      Y:     0.0000      Z:     2.8756     Total:     2.8756

*** Psi4 exiting successfully. Buy a developer a beer!
