                               Psi4 1.2a1.dev429

  ==> Input File <==

--------------------------------------------------------------------------
# density-fitted hartree fock energies and gradients with 6-31g
molecule h20 {
0 1
O 0.0000000000 0.0000000000 0.0000000000
H 0.0000000000 0.0000000000 0.8000000000
H 0.0000000000 0.1562833599 -0.8863269777
}

set basis 6-31g

gradient('hf')
--------------------------------------------------------------------------

    Molecular point group: cs
  Charge       = 0
  Multiplicity = 1
  Basis Set: 6-31G
    Blend: 6-31G
  Basis Set: (6-31G AUX)
    Blend: CC-PVDZ-JKFIT

    Orbital Energies (a.u.)
    -----------------------

    Doubly Occupied:

       1Ap   -20.500265     2Ap    -1.360443     3Ap    -0.852533
       4Ap    -0.488377     1App   -0.487196

  @DF-RHF Final Energy:   -75.91906155728071

   => Energetics <=

    Nuclear Repulsion Energy =             10.3080351104758829
    One-Electron Energy =                -125.0765654681520402
    Two-Electron Energy =                  38.8494688003954423
    Total Energy =                        -75.9190615572807133
    Molecular point group: cs

    Geometry (in Angstrom), charge = 0, multiplicity = 1:

       Center              X                  Y                   Z               Mass
    ------------   -----------------  -----------------  -----------------  -----------------
           O          0.008745216209    -0.004830636385     0.000000000000    15.994914619560
           H          0.008745216209    -0.804830636385     0.000000000000     1.007825032070
           H         -0.147538143691     0.881496341315     0.000000000000     1.007825032070

  Basis Set: 6-31G
    Blend: 6-31G
  Basis Set: (6-31G AUX)
    Blend: CC-PVDZ-JKFIT

  -Total Gradient:
     Atom            X                  Y                   Z
    ------   -----------------  -----------------  -----------------
       1       -0.029295775086    -0.235229308449     0.000000000000
       2        0.012816458606     0.263081891648     0.000000000000
       3        0.016479316480    -0.027852583199     0.000000000000

*** Psi4 exiting successfully. Buy a developer a beer!
