                               Psi4 1.3.1 release

  ==> Input File <==

--------------------------------------------------------------------------
# density fitted hartree fock
molecule h2o {
0 1
H 0.0000000000 0.0000000000 1.2000000000
H 0.0000000000 0.7794228634 -0.4500000000
O 0.0000000000 0.0000000000 0.0000000000
}

set basis 6-31g
energy('hf')

--------------------------------------------------------------------------

    Molecular point group: cs

    Geometry (in Angstrom), charge = 0, multiplicity = 1:

       Center              X                  Y                   Z               Mass
    ------------   -----------------  -----------------  -----------------  -----------------
         H            0.043614505498    -1.158031922517     0.000000000000     1.007825032230
         H           -0.735808357902     0.491968077483     0.000000000000     1.007825032230
         O            0.043614505498     0.041968077483     0.000000000000    15.994914619570

  Charge       = 0
  Multiplicity = 1
  Basis Set: 6-31G
    Blend: 6-31G
  Basis Set: (6-31G AUX)
    Blend: CC-PVDZ-JKFIT

    Orbital Energies [Eh]
    ---------------------

    Doubly Occupied:

       1Ap   -20.560884     2Ap    -1.315949     3Ap    -0.684963
       4Ap    -0.513716     1App   -0.488817

  @DF-RHF Final Energy:   -75.93873677101510

   => Energetics <=

    Nuclear Repulsion Energy =              8.5216328244693909
    One-Electron Energy =                -121.7920667214068260
    Two-Electron Energy =                  37.3316971259223322
    Total Energy =                        -75.9387367710151011

  Dipole Moment: [D]
     X:    -1.9231      Y:    -1.3835      Z:     0.0000     Total:     2.3691

*** Psi4 exiting successfully. Buy a developer a beer!
