                               Psi4 1.3.1 release

  ==> Input File <==

--------------------------------------------------------------------------
# density fitted hartree fock
molecule h2o {
0 1
H 0.0000000000 0.0000000000 1.0000000000
H 0.0000000000 0.8500000000 0.0000000000
O 0.0000000000 0.0000000000 0.0000000000
}

set basis 6-31g
energy('hf')

--------------------------------------------------------------------------

    Molecular point group: cs

    Geometry (in Angstrom), charge = 0, multiplicity = 1:

       Center              X                  Y                   Z               Mass
    ------------   -----------------  -----------------  -----------------  -----------------
         H            0.047563821147    -0.944042563356     0.000000000000     1.007825032230
         H           -0.802436178853     0.055957436644     0.000000000000     1.007825032230
         O            0.047563821147     0.055957436644     0.000000000000    15.994914619570

  Charge       = 0
  Multiplicity = 1
  Basis Set: 6-31G
    Blend: 6-31G
  Basis Set: (6-31G AUX)
    Blend: CC-PVDZ-JKFIT

    Orbital Energies [Eh]
    ---------------------

    Doubly Occupied:

       1Ap   -20.562974     2Ap    -1.399542     3Ap    -0.700123
       4Ap    -0.592020     1App   -0.510187

  @DF-RHF Final Energy:   -75.95412584538809

   => Energetics <=

    Nuclear Repulsion Energy =              9.6171100027729288
    One-Electron Energy =                -123.6127887256841689
    Two-Electron Energy =                  38.0415528775231451
    Total Energy =                        -75.9541258453880914

  Dipole Moment: [D]
     X:    -1.9987      Y:    -2.0079      Z:     0.0000     Total:     2.8332

*** Psi4 exiting successfully. Buy a developer a beer!
