                               Psi4 1.2a1.dev429

  ==> Input File <==

--------------------------------------------------------------------------
# density-fitted hartree fock energies and gradients with 6-31g
molecule h20 {
0 1
O 0.0000000000 0.0000000000 0.0000000000
H 0.0000000000 0.0000000000 1.3000000000
H 0.0000000000 0.9526279442 -0.5500000000
}

set basis 6-31g

gradient('hf')
--------------------------------------------------------------------------

    Molecular point group: cs
  Charge       = 0
  Multiplicity = 1
  Basis Set: 6-31G
    Blend: 6-31G
  Basis Set: (6-31G AUX)
    Blend: CC-PVDZ-JKFIT

    Orbital Energies (a.u.)
    -----------------------

    Doubly Occupied:

       1Ap   -20.587878     2Ap    -1.254573     3Ap    -0.613128
       4Ap    -0.494749     1App   -0.484485

  @DF-RHF Final Energy:   -75.89985467619444

   => Energetics <=

    Nuclear Repulsion Energy =              7.3593429839765996
    One-Electron Energy =                -119.6487698940721174
    Two-Electron Energy =                  36.3895722339010845
    Total Energy =                        -75.8998546761944226
    Molecular point group: cs

    Geometry (in Angstrom), charge = 0, multiplicity = 1:

       Center              X                  Y                   Z               Mass
    ------------   -----------------  -----------------  -----------------  -----------------
           O          0.053306617825     0.041968077477     0.000000000000    15.994914619560
           H          0.053306617825    -1.258031922523     0.000000000000     1.007825032070
           H         -0.899321326375     0.591968077477     0.000000000000     1.007825032070

  Basis Set: 6-31G
    Blend: 6-31G
  Basis Set: (6-31G AUX)
    Blend: CC-PVDZ-JKFIT

  -Total Gradient:
     Atom            X                  Y                   Z
    ------   -----------------  -----------------  -----------------
       1        0.055761344769     0.066766637515     0.000000000000
       2        0.018848705195    -0.135564581199     0.000000000000
       3       -0.074610049964     0.068797943684     0.000000000000

*** Psi4 exiting successfully. Buy a developer a beer!
