                               Psi4 1.2a1.dev429

  ==> Input File <==

--------------------------------------------------------------------------
# density-fitted hartree fock energies and gradients with 6-31g
molecule o2 {
0 3
O 0.0000000000 0.0000000000 0.0000000000
O 0.0000000000 0.0000000000 0.9285714286
}

set basis 6-31g
set reference rohf

energy('scf')
--------------------------------------------------------------------------

    Molecular point group: d2h

    Geometry (in Angstrom), charge = 0, multiplicity = 3:

       Center              X                  Y                   Z               Mass
    ------------   -----------------  -----------------  -----------------  -----------------
           O          0.000000000000     0.000000000000    -0.464285714300    15.994914619560
           O          0.000000000000     0.000000000000     0.464285714300    15.994914619560

  Charge       = 0
  Multiplicity = 3
  Basis Set: 6-31G
    Blend: 6-31G
  Basis Set: (6-31G AUX)
    Blend: CC-PVDZ-JKFIT

    Orbital Energies (a.u.)
    -----------------------

    Doubly Occupied:

       1Ag   -20.706967     1B1u  -20.702530     2Ag    -2.039113
       2B1u   -0.990279     1B2u   -0.878882     1B3u   -0.878882
       3Ag    -0.802815

    Singly Occupied:

       1B2g   -0.073852     1B3g   -0.073852

  @DF-ROHF Final Energy:  -149.28924759295961

   => Energetics <=

    Nuclear Repulsion Energy =             36.4725214524654575
    One-Electron Energy =                -276.7150599515617841
    Two-Electron Energy =                  90.9532909061367008
    Total Energy =                       -149.2892475929596117
*** Psi4 exiting successfully. Buy a developer a beer!
