                               Psi4 1.2a1.dev429

  ==> Input File <==

--------------------------------------------------------------------------
# density-fitted hartree fock energies and gradients with 6-31g
molecule h20 {
0 1
O 0.0000000000 0.0000000000 0.0000000000
O 0.0000000000 0.0000000000 0.8636363636
}

set basis 6-31g

gradient('hf')
--------------------------------------------------------------------------

    Molecular point group: d2h
  Charge       = 0
  Multiplicity = 1
  Basis Set: 6-31G
    Blend: 6-31G
  Basis Set: (6-31G AUX)
    Blend: CC-PVDZ-JKFIT

    Orbital Energies (a.u.)
    -----------------------

    Doubly Occupied:

       1Ag   -20.723481     1B1u  -20.715575     2Ag    -2.147243
       1B2u   -0.988169     2B1u   -0.970424     1B3u   -0.901949
       3Ag    -0.827914     1B3g   -0.285349

  @DF-RHF Final Energy:  -149.00520543181011

   => Energetics <=

    Nuclear Repulsion Energy =             39.2148163013732471
    One-Electron Energy =                -281.3198335673476436
    Two-Electron Energy =                  93.0998118341642709
    Total Energy =                       -149.0052054318101113
    Molecular point group: d2h

    Geometry (in Angstrom), charge = 0, multiplicity = 1:

       Center              X                  Y                   Z               Mass
    ------------   -----------------  -----------------  -----------------  -----------------
           O          0.000000000000     0.000000000000    -0.431818181800    15.994914619560
           O          0.000000000000     0.000000000000     0.431818181800    15.994914619560

  Basis Set: 6-31G
    Blend: 6-31G
  Basis Set: (6-31G AUX)
    Blend: CC-PVDZ-JKFIT

  -Total Gradient:
     Atom            X                  Y                   Z
    ------   -----------------  -----------------  -----------------
       1       -0.000000000000     0.000000000000     2.206622110774
       2        0.000000000000     0.000000000000    -2.206622110774

*** Psi4 exiting successfully. Buy a developer a beer!
