                               Psi4 1.2a1.dev429

  ==> Input File <==

--------------------------------------------------------------------------
# density-fitted hartree fock energies and gradients with 6-31g
molecule h2o {
0 1
O 0.0000000000 0.0000000000 0.0000000000
H 0.0000000000 0.0000000000 1.1000000000
H 0.0000000000 0.1910129954 -1.0832885283
}

set basis 6-31g

gradient('mp2')
--------------------------------------------------------------------------

    Molecular point group: c2v
  Charge       = 0
  Multiplicity = 1
  Basis Set: 6-31G
    Blend: 6-31G
  Basis Set: (6-31G AUX)
    Blend: CC-PVDZ-JKFIT

    Orbital Energies (a.u.)
    -----------------------

    Doubly Occupied:

       1A1   -20.510510     2A1    -1.226587     1B2    -0.667095
       3A1    -0.443189     1B1    -0.443119

  @DF-RHF Final Energy:   -75.89698643344416

   => Energetics <=

    Nuclear Repulsion Energy =              7.9385769339041579
    One-Electron Energy =                -121.0901293402276906
    Two-Electron Energy =                  37.2545659728793837
    Total Energy =                        -75.8969864334441411
  Basis Set: (6-31G AUX)
    Blend: CC-PVDZ-RI
    Molecular point group: c2v

    Geometry (in Angstrom), charge = 0, multiplicity = 1:

       Center              X                  Y                   Z               Mass
    ------------   -----------------  -----------------  -----------------  -----------------
           O         -0.000000000000     0.000000000000    -0.010729426293    15.994914619560
           H          0.000000000000    -1.095814167893     0.085141890713     1.007825032070
           H         -0.000000000000     1.095814167893     0.085141890713     1.007825032070

  Basis Set: 6-31G
    Blend: 6-31G
  Basis Set: (6-31G AUX)
    Blend: CC-PVDZ-JKFIT
  Basis Set: (6-31G AUX)
    Blend: CC-PVDZ-JKFIT
	 Reference Energy          =     -75.8969864334441553 [Eh]
	 Singles Energy            =      -0.0000000000000000 [Eh]
	 Same-Spin Energy          =      -0.0324442340935591 [Eh]
	 Opposite-Spin Energy      =      -0.1014186169790805 [Eh]
	 Correlation Energy        =      -0.1338628510726396 [Eh]
	 Total Energy              =     -76.0308492845167905 [Eh]

	 ================> DF-SCS-MP2 Energies <==================
	-----------------------------------------------------------
	 SCS Same-Spin Scale       =       0.3333333333333333 [-]
	 SCS Opposite-Spin Scale   =       1.2000000000000000 [-]
	 SCS Same-Spin Energy      =      -0.0108147446978530 [Eh]
	 SCS Opposite-Spin Energy  =      -0.1217023403748966 [Eh]
	 SCS Correlation Energy    =      -0.1325170850727496 [Eh]
	 SCS Total Energy          =     -76.0295035185169041 [Eh]
	-----------------------------------------------------------

  -Total Gradient:
     Atom            X                  Y                   Z
    ------   -----------------  -----------------  -----------------
       1       -0.000000000000     0.000000000005     0.016659977736
       2        0.000000000000    -0.109313450662    -0.008329988868
       3        0.000000000000     0.109313450657    -0.008329988868

*** Psi4 exiting successfully. Buy a developer a beer!
