                               Psi4 1.2a1.dev429

  ==> Input File <==

--------------------------------------------------------------------------
# density-fitted hartree fock energies and gradients with 6-31g
molecule h2o {
0 1
O 0.0000000000 0.0000000000 0.0000000000
H 0.0000000000 0.0000000000 1.1000000000
H 0.0000000000 0.8356238926 -0.9958577761
}

set basis 6-31g

gradient('mp2')
--------------------------------------------------------------------------

    Molecular point group: cs
  Charge       = 0
  Multiplicity = 1
  Basis Set: 6-31G
    Blend: 6-31G
  Basis Set: (6-31G AUX)
    Blend: CC-PVDZ-JKFIT

    Orbital Energies (a.u.)
    -----------------------

    Doubly Occupied:

       1Ap   -20.559506     2Ap    -1.232451     3Ap    -0.617977
       1App   -0.464688     4Ap    -0.463130

  @DF-RHF Final Energy:   -75.87779455070029

   => Energetics <=

    Nuclear Repulsion Energy =              7.3395698837772816
    One-Electron Energy =                -119.7592235071629290
    Two-Electron Energy =                  36.5418590726853552
    Total Energy =                        -75.8777945507002869
  Basis Set: (6-31G AUX)
    Blend: CC-PVDZ-RI
    Molecular point group: cs

    Geometry (in Angstrom), charge = 0, multiplicity = 1:

       Center              X                  Y                   Z               Mass
    ------------   -----------------  -----------------  -----------------  -----------------
           O          0.046759371022     0.005827531895     0.000000000000    15.994914619560
           H          0.046759371022    -1.094172468105     0.000000000000     1.007825032070
           H         -0.788864521578     1.001685307995     0.000000000000     1.007825032070

  Basis Set: 6-31G
    Blend: 6-31G
  Basis Set: (6-31G AUX)
    Blend: CC-PVDZ-JKFIT
  Basis Set: (6-31G AUX)
    Blend: CC-PVDZ-JKFIT
	 Reference Energy          =     -75.8777945507002869 [Eh]
	 Singles Energy            =      -0.0000000000000000 [Eh]
	 Same-Spin Energy          =      -0.0342318476577529 [Eh]
	 Opposite-Spin Energy      =      -0.1123931801535917 [Eh]
	 Correlation Energy        =      -0.1466250278113446 [Eh]
	 Total Energy              =     -76.0244195785116261 [Eh]

	 ================> DF-SCS-MP2 Energies <==================
	-----------------------------------------------------------
	 SCS Same-Spin Scale       =       0.3333333333333333 [-]
	 SCS Opposite-Spin Scale   =       1.2000000000000000 [-]
	 SCS Same-Spin Energy      =      -0.0114106158859176 [Eh]
	 SCS Opposite-Spin Energy  =      -0.1348718161843100 [Eh]
	 SCS Correlation Energy    =      -0.1462824320702276 [Eh]
	 SCS Total Energy          =     -76.0240769827705094 [Eh]
	-----------------------------------------------------------

  -Total Gradient:
     Atom            X                  Y                   Z
    ------   -----------------  -----------------  -----------------
       1        0.007255156413    -0.031488522124    -0.000000000000
       2        0.040996306155    -0.079982118880     0.000000000000
       3       -0.048251462568     0.111470641004    -0.000000000000

*** Psi4 exiting successfully. Buy a developer a beer!
