                               Psi4 1.2a1.dev429

  ==> Input File <==

--------------------------------------------------------------------------
# density-fitted hartree fock energies and gradients with 6-31g
molecule o2 {
0 3
O 0.0000000000 0.0000000000 0.0000000000
O 0.0000000000 0.0000000000 1.4646464646
}

set basis 6-31g
set reference rohf

gradient('scf')
--------------------------------------------------------------------------

    Molecular point group: d2h
  Charge       = 0
  Multiplicity = 3
  Basis Set: 6-31G
    Blend: 6-31G
  Basis Set: (6-31G AUX)
    Blend: CC-PVDZ-JKFIT

    Orbital Energies (a.u.)
    -----------------------

    Doubly Occupied:

       1Ag   -20.785394     1B1u  -20.784989     2Ag    -1.499487
       2B1u   -1.181655     3Ag    -0.650889     1B3u   -0.633449
       1B2u   -0.633449

    Singly Occupied:

       1B2g   -0.306522     1B3g   -0.306522

  @DF-ROHF Final Energy:  -149.45466612595490

   => Energetics <=

    Nuclear Repulsion Energy =             23.1232192671214314
    One-Electron Energy =                -251.5837440929028617
    Two-Electron Energy =                  79.0058586998265184
    Total Energy =                       -149.4546661259549012
    Molecular point group: d2h

    Geometry (in Angstrom), charge = 0, multiplicity = 3:

       Center              X                  Y                   Z               Mass
    ------------   -----------------  -----------------  -----------------  -----------------
           O          0.000000000000     0.000000000000    -0.732323232300    15.994914619560
           O          0.000000000000     0.000000000000     0.732323232300    15.994914619560

  Basis Set: 6-31G
    Blend: 6-31G
  Basis Set: (6-31G AUX)
    Blend: CC-PVDZ-JKFIT

  -Total Gradient:
     Atom            X                  Y                   Z
    ------   -----------------  -----------------  -----------------
       1        0.000000000000    -0.000000000000    -0.212530978135
       2       -0.000000000000     0.000000000000     0.212530978135

*** Psi4 exiting successfully. Buy a developer a beer!
