                               Psi4 1.2a1.dev429

  ==> Input File <==

--------------------------------------------------------------------------
# density-fitted hartree fock energies and gradients with 6-31g
molecule h2o {
0 1
O 0.0000000000 0.0000000000 0.0000000000
H 0.0000000000 0.0000000000 0.8000000000
H 0.0000000000 0.6500000000 -1.1258330249
}

set basis 6-31g

gradient('mp2')
--------------------------------------------------------------------------

    Molecular point group: cs
  Charge       = 0
  Multiplicity = 1
  Basis Set: 6-31G
    Blend: 6-31G
  Basis Set: (6-31G AUX)
    Blend: CC-PVDZ-JKFIT

    Orbital Energies (a.u.)
    -----------------------

    Doubly Occupied:

       1Ap   -20.516779     2Ap    -1.313875     3Ap    -0.698304
       4Ap    -0.464391     1App   -0.464085

  @DF-RHF Final Energy:   -75.84907355069198

   => Energetics <=

    Nuclear Repulsion Energy =              8.8085962904013630
    One-Electron Energy =                -122.4004729541439644
    Two-Electron Energy =                  37.7428031130506128
    Total Energy =                        -75.8490735506919833
  Basis Set: (6-31G AUX)
    Blend: CC-PVDZ-RI
    Molecular point group: cs

    Geometry (in Angstrom), charge = 0, multiplicity = 1:

       Center              X                  Y                   Z               Mass
    ------------   -----------------  -----------------  -----------------  -----------------
           O          0.036372333814    -0.018232780845     0.000000000000    15.994914619560
           H          0.036372333814    -0.818232780845     0.000000000000     1.007825032070
           H         -0.613627666186     1.107600244055     0.000000000000     1.007825032070

  Basis Set: 6-31G
    Blend: 6-31G
  Basis Set: (6-31G AUX)
    Blend: CC-PVDZ-JKFIT
  Basis Set: (6-31G AUX)
    Blend: CC-PVDZ-JKFIT
	 Reference Energy          =     -75.8490735506919833 [Eh]
	 Singles Energy            =      -0.0000000000000000 [Eh]
	 Same-Spin Energy          =      -0.0315337152130096 [Eh]
	 Opposite-Spin Energy      =      -0.1014080583532627 [Eh]
	 Correlation Energy        =      -0.1329417735662723 [Eh]
	 Total Energy              =     -75.9820153242582563 [Eh]

	 ================> DF-SCS-MP2 Energies <==================
	-----------------------------------------------------------
	 SCS Same-Spin Scale       =       0.3333333333333333 [-]
	 SCS Opposite-Spin Scale   =       1.2000000000000000 [-]
	 SCS Same-Spin Energy      =      -0.0105112384043365 [Eh]
	 SCS Opposite-Spin Energy  =      -0.1216896700239152 [Eh]
	 SCS Correlation Energy    =      -0.1322009084282517 [Eh]
	 SCS Total Energy          =     -75.9812744591202289 [Eh]
	-----------------------------------------------------------

  -Total Gradient:
     Atom            X                  Y                   Z
    ------   -----------------  -----------------  -----------------
       1       -0.004861502792    -0.444267393736    -0.000000000000
       2        0.047912053762     0.310732971967     0.000000000000
       3       -0.043050550970     0.133534421769    -0.000000000000

*** Psi4 exiting successfully. Buy a developer a beer!
