                               Psi4 1.2a1.dev429

  ==> Input File <==

--------------------------------------------------------------------------
# density-fitted hartree fock energies and gradients with 6-31g
molecule h2o {
0 1
O 0.0000000000 0.0000000000 0.0000000000
H 0.0000000000 0.0000000000 0.8000000000
H 0.0000000000 1.1276311449 -0.4104241720
}

set basis 6-31g

gradient('mp2')
--------------------------------------------------------------------------

    Molecular point group: cs
  Charge       = 0
  Multiplicity = 1
  Basis Set: 6-31G
    Blend: 6-31G
  Basis Set: (6-31G AUX)
    Blend: CC-PVDZ-JKFIT

    Orbital Energies (a.u.)
    -----------------------

    Doubly Occupied:

       1Ap   -20.560323     2Ap    -1.367747     3Ap    -0.703678
       4Ap    -0.534993     1App   -0.499195

  @DF-RHF Final Energy:   -75.91032486808095

   => Energetics <=

    Nuclear Repulsion Energy =              9.1395017192642491
    One-Electron Energy =                -122.7677802748186480
    Two-Electron Energy =                  37.7179536874734538
    Total Energy =                        -75.9103248680809486
  Basis Set: (6-31G AUX)
    Blend: CC-PVDZ-RI
    Molecular point group: cs

    Geometry (in Angstrom), charge = 0, multiplicity = 1:

       Center              X                  Y                   Z               Mass
    ------------   -----------------  -----------------  -----------------  -----------------
           O          0.063099348340     0.021799664710     0.000000000000    15.994914619560
           H          0.063099348340    -0.778200335290     0.000000000000     1.007825032070
           H         -1.064531796560     0.432223836710     0.000000000000     1.007825032070

  Basis Set: 6-31G
    Blend: 6-31G
  Basis Set: (6-31G AUX)
    Blend: CC-PVDZ-JKFIT
  Basis Set: (6-31G AUX)
    Blend: CC-PVDZ-JKFIT
	 Reference Energy          =     -75.9103248680809486 [Eh]
	 Singles Energy            =      -0.0000000000000000 [Eh]
	 Same-Spin Energy          =      -0.0303226404019874 [Eh]
	 Opposite-Spin Energy      =      -0.1006371750611719 [Eh]
	 Correlation Energy        =      -0.1309598154631594 [Eh]
	 Total Energy              =     -76.0412846835441059 [Eh]

	 ================> DF-SCS-MP2 Energies <==================
	-----------------------------------------------------------
	 SCS Same-Spin Scale       =       0.3333333333333333 [-]
	 SCS Opposite-Spin Scale   =       1.2000000000000000 [-]
	 SCS Same-Spin Energy      =      -0.0101075468006625 [Eh]
	 SCS Opposite-Spin Energy  =      -0.1207646100734063 [Eh]
	 SCS Correlation Energy    =      -0.1308721568740688 [Eh]
	 SCS Total Energy          =     -76.0411970249550109 [Eh]
	-----------------------------------------------------------

  -Total Gradient:
     Atom            X                  Y                   Z
    ------   -----------------  -----------------  -----------------
       1        0.094188546794    -0.366947675585    -0.000000000000
       2        0.006143765625     0.326070995765    -0.000000000000
       3       -0.100332312419     0.040876679820     0.000000000000

*** Psi4 exiting successfully. Buy a developer a beer!
