                               Psi4 1.2a1.dev429

  ==> Input File <==

--------------------------------------------------------------------------
# density-fitted hartree fock energies and gradients with 6-31g
molecule h2o {
0 1
O 0.0000000000 0.0000000000 0.0000000000
H 0.0000000000 0.0000000000 1.2000000000
H 0.0000000000 0.2604722665 -1.4772116295
}

set basis 6-31g

gradient('mp2')
--------------------------------------------------------------------------

    Molecular point group: cs
  Charge       = 0
  Multiplicity = 1
  Basis Set: 6-31G
    Blend: 6-31G
  Basis Set: (6-31G AUX)
    Blend: CC-PVDZ-JKFIT

    Orbital Energies (a.u.)
    -----------------------

    Doubly Occupied:

       1Ap   -20.513662     2Ap    -1.159749     3Ap    -0.541182
       1App   -0.418004     4Ap    -0.412273

  @DF-RHF Final Energy:   -75.76477019584593

   => Energetics <=

    Nuclear Repulsion Energy =              6.5468574227341758
    One-Electron Energy =                -118.5335155890226417
    Two-Electron Energy =                  36.2218879704425376
    Total Energy =                        -75.7647701958459265
  Basis Set: (6-31G AUX)
    Blend: CC-PVDZ-RI
    Molecular point group: cs

    Geometry (in Angstrom), charge = 0, multiplicity = 1:

       Center              X                  Y                   Z               Mass
    ------------   -----------------  -----------------  -----------------  -----------------
           O          0.014575360348    -0.015512052193     0.000000000000    15.994914619560
           H          0.014575360348    -1.215512052193     0.000000000000     1.007825032070
           H         -0.245896906152     1.461699577307     0.000000000000     1.007825032070

  Basis Set: 6-31G
    Blend: 6-31G
  Basis Set: (6-31G AUX)
    Blend: CC-PVDZ-JKFIT
  Basis Set: (6-31G AUX)
    Blend: CC-PVDZ-JKFIT
	 Reference Energy          =     -75.7647701958459265 [Eh]
	 Singles Energy            =      -0.0000000000000000 [Eh]
	 Same-Spin Energy          =      -0.0349670877123785 [Eh]
	 Opposite-Spin Energy      =      -0.1132384952062279 [Eh]
	 Correlation Energy        =      -0.1482055829186064 [Eh]
	 Total Energy              =     -75.9129757787645332 [Eh]

	 ================> DF-SCS-MP2 Energies <==================
	-----------------------------------------------------------
	 SCS Same-Spin Scale       =       0.3333333333333333 [-]
	 SCS Opposite-Spin Scale   =       1.2000000000000000 [-]
	 SCS Same-Spin Energy      =      -0.0116556959041262 [Eh]
	 SCS Opposite-Spin Energy  =      -0.1358861942474735 [Eh]
	 SCS Correlation Energy    =      -0.1475418901515996 [Eh]
	 SCS Total Energy          =     -75.9123120859975273 [Eh]
	-----------------------------------------------------------

  -Total Gradient:
     Atom            X                  Y                   Z
    ------   -----------------  -----------------  -----------------
       1       -0.045704888089    -0.010934493156    -0.000000000000
       2        0.036962326372    -0.109770003059     0.000000000000
       3        0.008742561717     0.120704496215    -0.000000000000

*** Psi4 exiting successfully. Buy a developer a beer!
