                               Psi4 1.3.1 release

  ==> Input File <==

--------------------------------------------------------------------------
# density fitted MP2
molecule h2o {
0 1
H 0.0000000000 0.0000000000 1.2000000000
H 0.0000000000 1.0250000000 0.0000000000
O 0.0000000000 0.0000000000 0.0000000000
}

set basis 6-31g
energy('mp2')

--------------------------------------------------------------------------

    Molecular point group: cs

    Geometry (in Angstrom), charge = 0, multiplicity = 1:

       Center              X                  Y                   Z               Mass
    ------------   -----------------  -----------------  -----------------  -----------------
         H            0.057356372560    -1.132851076027     0.000000000000     1.007825032230
         H           -0.967643627440     0.067148923973     0.000000000000     1.007825032230
         O            0.057356372560     0.067148923973     0.000000000000    15.994914619570

  Charge       = 0
  Multiplicity = 1
  Basis Set: 6-31G
    Blend: 6-31G
  Basis Set: (6-31G AUX)
    Blend: CC-PVDZ-JKFIT

    Orbital Energies [Eh]
    ---------------------

    Doubly Occupied:

       1Ap   -20.600912     2Ap    -1.307707     3Ap    -0.621330
       4Ap    -0.556914     1App   -0.504955

  @DF-RHF Final Energy:   -75.93675811773889

   => Energetics <=

    Nuclear Repulsion Energy =              7.9933220183508906
    One-Electron Energy =                -120.6765247051247627
    Two-Electron Energy =                  36.7464445690349919
    Total Energy =                        -75.9367581177388757

  Dipole Moment: [D]
     X:    -2.0633      Y:    -1.9866      Z:     0.0000     Total:     2.8642

  Basis Set: (6-31G AUX)
    Blend: CC-PVDZ-RI
	 Reference Energy          =     -75.9367581177388900 [Eh]
	 Singles Energy            =      -0.0000000000000000 [Eh]
	 Same-Spin Energy          =      -0.0334841202736786 [Eh]
	 Opposite-Spin Energy      =      -0.1116890096199848 [Eh]
	 Correlation Energy        =      -0.1451731298936634 [Eh]
	 Total Energy              =     -76.0819312476325535 [Eh]

	 ================> DF-SCS-MP2 Energies <==================
	-----------------------------------------------------------
	 SCS Same-Spin Scale       =       0.3333333333333333 [-]
	 SCS Opposite-Spin Scale   =       1.2000000000000000 [-]
	 SCS Same-Spin Energy      =      -0.0111613734245595 [Eh]
	 SCS Opposite-Spin Energy  =      -0.1340268115439818 [Eh]
	 SCS Correlation Energy    =      -0.1451881849685413 [Eh]
	 SCS Total Energy          =     -76.0819463027074363 [Eh]
	-----------------------------------------------------------

*** Psi4 exiting successfully. Buy a developer a beer!
