                               Psi4 1.2a1.dev429

  ==> Input File <==

--------------------------------------------------------------------------
# density-fitted hartree fock energies and gradients with 6-31g
molecule h2o {
0 1
O 0.0000000000 0.0000000000 0.0000000000
H 0.0000000000 0.0000000000 1.2000000000
H 0.0000000000 0.2431074487 -1.3787308542
}

set basis 6-31g

gradient('mp2')
--------------------------------------------------------------------------

    Molecular point group: cs
  Charge       = 0
  Multiplicity = 1
  Basis Set: 6-31G
    Blend: 6-31G
  Basis Set: (6-31G AUX)
    Blend: CC-PVDZ-JKFIT

    Orbital Energies (a.u.)
    -----------------------

    Doubly Occupied:

       1Ap   -20.513090     2Ap    -1.166865     3Ap    -0.560875
       1App   -0.420911     4Ap    -0.417603

  @DF-RHF Final Energy:   -75.79146541638190

   => Energetics <=

    Nuclear Repulsion Energy =              6.7560203401396484
    One-Electron Energy =                -118.9362834847100032
    Two-Electron Energy =                  36.3887977281884574
    Total Energy =                        -75.7914654163818966
  Basis Set: (6-31G AUX)
    Blend: CC-PVDZ-RI
    Molecular point group: cs

    Geometry (in Angstrom), charge = 0, multiplicity = 1:

       Center              X                  Y                   Z               Mass
    ------------   -----------------  -----------------  -----------------  -----------------
           O          0.013603669656    -0.010001320449     0.000000000000    15.994914619560
           H          0.013603669656    -1.210001320449     0.000000000000     1.007825032070
           H         -0.229503779044     1.368729533751     0.000000000000     1.007825032070

  Basis Set: 6-31G
    Blend: 6-31G
  Basis Set: (6-31G AUX)
    Blend: CC-PVDZ-JKFIT
  Basis Set: (6-31G AUX)
    Blend: CC-PVDZ-JKFIT
	 Reference Energy          =     -75.7914654163818966 [Eh]
	 Singles Energy            =      -0.0000000000000000 [Eh]
	 Same-Spin Energy          =      -0.0345269077769582 [Eh]
	 Opposite-Spin Energy      =      -0.1102661492988240 [Eh]
	 Correlation Energy        =      -0.1447930570757822 [Eh]
	 Total Energy              =     -75.9362584734576842 [Eh]

	 ================> DF-SCS-MP2 Energies <==================
	-----------------------------------------------------------
	 SCS Same-Spin Scale       =       0.3333333333333333 [-]
	 SCS Opposite-Spin Scale   =       1.2000000000000000 [-]
	 SCS Same-Spin Energy      =      -0.0115089692589861 [Eh]
	 SCS Opposite-Spin Energy  =      -0.1323193791585888 [Eh]
	 SCS Correlation Energy    =      -0.1438283484175749 [Eh]
	 SCS Total Energy          =     -75.9352937647994679 [Eh]
	-----------------------------------------------------------

  -Total Gradient:
     Atom            X                  Y                   Z
    ------   -----------------  -----------------  -----------------
       1       -0.033475160173    -0.015207107133     0.000000000000
       2        0.030218776860    -0.115487592465    -0.000000000000
       3        0.003256383313     0.130694699597     0.000000000000

*** Psi4 exiting successfully. Buy a developer a beer!
