                               Psi4 1.2a1.dev429

  ==> Input File <==

--------------------------------------------------------------------------
# density-fitted hartree fock energies and gradients with 6-31g
molecule h2o {
0 1
O 0.0000000000 0.0000000000 0.0000000000
H 0.0000000000 0.0000000000 0.9000000000
H 0.0000000000 0.1736481777 -0.9848077530
}

set basis 6-31g

gradient('mp2')
--------------------------------------------------------------------------

    Molecular point group: cs
  Charge       = 0
  Multiplicity = 1
  Basis Set: 6-31G
    Blend: 6-31G
  Basis Set: (6-31G AUX)
    Blend: CC-PVDZ-JKFIT

    Orbital Energies (a.u.)
    -----------------------

    Doubly Occupied:

       1Ap   -20.505530     2Ap    -1.300535     3Ap    -0.770857
       4Ap    -0.468977     1App   -0.468087

  @DF-RHF Final Energy:   -75.93962015584297

   => Energetics <=

    Nuclear Repulsion Energy =              9.2167903143097654
    One-Electron Energy =                -123.2848491438443261
    Two-Electron Energy =                  38.1284386736915764
    Total Energy =                        -75.9396201558429880
  Basis Set: (6-31G AUX)
    Blend: CC-PVDZ-RI
    Molecular point group: cs

    Geometry (in Angstrom), charge = 0, multiplicity = 1:

       Center              X                  Y                   Z               Mass
    ------------   -----------------  -----------------  -----------------  -----------------
           O          0.009716906901    -0.004745624465     0.000000000000    15.994914619560
           H          0.009716906901    -0.904745624465     0.000000000000     1.007825032070
           H         -0.163931270799     0.980062128535     0.000000000000     1.007825032070

  Basis Set: 6-31G
    Blend: 6-31G
  Basis Set: (6-31G AUX)
    Blend: CC-PVDZ-JKFIT
  Basis Set: (6-31G AUX)
    Blend: CC-PVDZ-JKFIT
	 Reference Energy          =     -75.9396201558429738 [Eh]
	 Singles Energy            =      -0.0000000000000000 [Eh]
	 Same-Spin Energy          =      -0.0301653446216440 [Eh]
	 Opposite-Spin Energy      =      -0.0946357085468472 [Eh]
	 Correlation Energy        =      -0.1248010531684912 [Eh]
	 Total Energy              =     -76.0644212090114706 [Eh]

	 ================> DF-SCS-MP2 Energies <==================
	-----------------------------------------------------------
	 SCS Same-Spin Scale       =       0.3333333333333333 [-]
	 SCS Opposite-Spin Scale   =       1.2000000000000000 [-]
	 SCS Same-Spin Energy      =      -0.0100551148738813 [Eh]
	 SCS Opposite-Spin Energy  =      -0.1135628502562167 [Eh]
	 SCS Correlation Energy    =      -0.1236179651300980 [Eh]
	 SCS Total Energy          =     -76.0632381209730681 [Eh]
	-----------------------------------------------------------

  -Total Gradient:
     Atom            X                  Y                   Z
    ------   -----------------  -----------------  -----------------
       1       -0.018039742130    -0.122011261631    -0.000000000000
       2        0.015219834788     0.059120971971     0.000000000000
       3        0.002819907342     0.062890289660     0.000000000000

*** Psi4 exiting successfully. Buy a developer a beer!
