                               Psi4 1.2a1.dev429

  ==> Input File <==

--------------------------------------------------------------------------
# density-fitted hartree fock energies and gradients with 6-31g
molecule h20 {
0 1
O 0.0000000000 0.0000000000 0.0000000000
H 0.0000000000 0.0000000000 0.9000000000
H 0.0000000000 0.5500000000 -0.9526279442
}

set basis 6-31g

gradient('hf')
--------------------------------------------------------------------------

    Molecular point group: cs
  Charge       = 0
  Multiplicity = 1
  Basis Set: 6-31G
    Blend: 6-31G
  Basis Set: (6-31G AUX)
    Blend: CC-PVDZ-JKFIT

    Orbital Energies (a.u.)
    -----------------------

    Doubly Occupied:

       1Ap   -20.521820     2Ap    -1.296004     3Ap    -0.729553
       4Ap    -0.476522     1App   -0.469740

  @DF-RHF Final Energy:   -75.93469298509618

   => Energetics <=

    Nuclear Repulsion Energy =              8.8261829254686024
    One-Electron Energy =                -122.5344758963750280
    Two-Electron Energy =                  37.7735999858102431
    Total Energy =                        -75.9346929850961772
    Molecular point group: cs

    Geometry (in Angstrom), charge = 0, multiplicity = 1:

       Center              X                  Y                   Z               Mass
    ------------   -----------------  -----------------  -----------------  -----------------
           O          0.030776590150    -0.002944924853     0.000000000000    15.994914619560
           H          0.030776590150    -0.902944924853     0.000000000000     1.007825032070
           H         -0.519223409850     0.949683019347     0.000000000000     1.007825032070

  Basis Set: 6-31G
    Blend: 6-31G
  Basis Set: (6-31G AUX)
    Blend: CC-PVDZ-JKFIT

  -Total Gradient:
     Atom            X                  Y                   Z
    ------   -----------------  -----------------  -----------------
       1        0.003816184017    -0.175753375119     0.000000000000
       2        0.034486707520     0.052978027246     0.000000000000
       3       -0.038302891537     0.122775347873     0.000000000000

*** Psi4 exiting successfully. Buy a developer a beer!
