                               Psi4 1.2a1.dev429

  ==> Input File <==

--------------------------------------------------------------------------
# density-fitted hartree fock energies and gradients with 6-31g
molecule h20 {
0 1
O 0.0000000000 0.0000000000 0.0000000000
H 0.0000000000 0.0000000000 1.3000000000
H 0.0000000000 0.1215537244 -0.6893654271
}

set basis 6-31g

gradient('hf')
--------------------------------------------------------------------------

    Molecular point group: cs
  Charge       = 0
  Multiplicity = 1
  Basis Set: 6-31G
    Blend: 6-31G
  Basis Set: (6-31G AUX)
    Blend: CC-PVDZ-JKFIT

    Orbital Energies (a.u.)
    -----------------------

    Doubly Occupied:

       1Ap   -20.486818     2Ap    -1.345138     3Ap    -0.721535
       1App   -0.454855     4Ap    -0.454572

  @DF-RHF Final Energy:   -75.73960242225600

   => Energetics <=

    Nuclear Repulsion Energy =              9.5697225100240502
    One-Electron Energy =                -123.6928132168840335
    Two-Electron Energy =                  38.3834882846039847
    Total Energy =                        -75.7396024222559987
    Molecular point group: cs

    Geometry (in Angstrom), charge = 0, multiplicity = 1:

       Center              X                  Y                   Z               Mass
    ------------   -----------------  -----------------  -----------------  -----------------
           O          0.006801834831     0.034169545421     0.000000000000    15.994914619560
           H          0.006801834831    -1.265830454579     0.000000000000     1.007825032070
           H         -0.114751889569     0.723534972521     0.000000000000     1.007825032070

  Basis Set: 6-31G
    Blend: 6-31G
  Basis Set: (6-31G AUX)
    Blend: CC-PVDZ-JKFIT

  -Total Gradient:
     Atom            X                  Y                   Z
    ------   -----------------  -----------------  -----------------
       1       -0.160334919184     0.885643547223     0.000000000000
       2        0.012018158061    -0.173029912026     0.000000000000
       3        0.148316761123    -0.712613635197     0.000000000000

*** Psi4 exiting successfully. Buy a developer a beer!
