                               Psi4 1.2.1 release

  ==> Input File <==

--------------------------------------------------------------------------
# density fitted hartree fock
molecule h2o {
0 1
H 0.0000000000 0.0000000000 1.1125000000
H 0.0000000000 0.8876760389 -0.5125000000
O 0.0000000000 0.0000000000 0.0000000000
}

set basis 6-31g
energy('hf')

--------------------------------------------------------------------------

    Molecular point group: cs

    Geometry (in Angstrom), charge = 0, multiplicity = 1:

       Center              X                  Y                   Z               Mass
    ------------   -----------------  -----------------  -----------------  -----------------
         H            0.049672075700    -1.078925538018     0.000000000000     1.007825032070
         H           -0.838003963200     0.546074461982     0.000000000000     1.007825032070
         O            0.049672075700     0.033574461982     0.000000000000    15.994914619560

  Charge       = 0
  Multiplicity = 1
  Basis Set: 6-31G
    Blend: 6-31G
  Basis Set: (6-31G AUX)
    Blend: CC-PVDZ-JKFIT

    Orbital Energies [Eh]
    ---------------------

    Doubly Occupied:

       1Ap   -20.566934     2Ap    -1.291202     3Ap    -0.670508
       4Ap    -0.515074     1App   -0.486882

  @DF-RHF Final Energy:   -75.95696197707460

   => Energetics <=

    Nuclear Repulsion Energy =              8.2212702576818835
    One-Electron Energy =                -121.2952553661206849
    Two-Electron Energy =                  37.1170231313642134
    Total Energy =                        -75.9569619770745987

  Dipole Moment: [D]
     X:    -2.0133      Y:    -1.2374      Z:     0.0000     Total:     2.3632

*** Psi4 exiting successfully. Buy a developer a beer!
