                               Psi4 1.3.1 release

  ==> Input File <==

--------------------------------------------------------------------------
# density fitted hartree fock
molecule h2o {
0 1
H 0.0000000000 0.0000000000 0.9500000000
H 0.0000000000 0.7912426863 -0.3105398707
O 0.0000000000 0.0000000000 0.0000000000
}

set basis 6-31g
energy('hf')

--------------------------------------------------------------------------

    Molecular point group: cs

    Geometry (in Angstrom), charge = 0, multiplicity = 1:

       Center              X                  Y                   Z               Mass
    ------------   -----------------  -----------------  -----------------  -----------------
         H            0.044275912489    -0.914217450328     0.000000000000     1.007825032230
         H           -0.746966773811     0.346322420372     0.000000000000     1.007825032230
         O            0.044275912489     0.035782549672     0.000000000000    15.994914619570

  Charge       = 0
  Multiplicity = 1
  Basis Set: 6-31G
    Blend: 6-31G
  Basis Set: (6-31G AUX)
    Blend: CC-PVDZ-JKFIT

    Orbital Energies [Eh]
    ---------------------

    Doubly Occupied:

       1Ap   -20.544039     2Ap    -1.384139     3Ap    -0.756952
       4Ap    -0.555394     1App   -0.502251

  @DF-RHF Final Energy:   -75.97189853647235

   => Energetics <=

    Nuclear Repulsion Energy =              9.7922795918366301
    One-Electron Energy =                -124.0428032238415739
    Two-Electron Energy =                  38.2786250955325897
    Total Energy =                        -75.9718985364723522

  Dipole Moment: [D]
     X:    -2.0036      Y:    -1.4609      Z:     0.0000     Total:     2.4797

*** Psi4 exiting successfully. Buy a developer a beer!
