                               Psi4 1.2a1.dev429

  ==> Input File <==

--------------------------------------------------------------------------
# density-fitted hartree fock energies and gradients with 6-31g
molecule h20 {
0 1
O 0.0000000000 0.0000000000 0.0000000000
O 0.0000000000 0.0000000000 1.0050505051
}

set basis 6-31g

gradient('hf')
--------------------------------------------------------------------------

    Molecular point group: d2h
  Charge       = 0
  Multiplicity = 1
  Basis Set: 6-31G
    Blend: 6-31G
  Basis Set: (6-31G AUX)
    Blend: CC-PVDZ-JKFIT

    Orbital Energies (a.u.)
    -----------------------

    Doubly Occupied:

       1Ag   -20.724818     1B1u  -20.722314     2Ag    -1.935854
       2B1u   -1.025801     1B3u   -0.879446     3Ag    -0.786360
       1B2u   -0.774613     1B2g   -0.389143

  @DF-RHF Final Energy:  -149.36356165865021

   => Energetics <=

    Nuclear Repulsion Energy =             33.6971537031268724
    One-Electron Energy =                -271.6447317450454193
    Two-Electron Energy =                  88.5840163832683203
    Total Energy =                       -149.3635616586502124
    Molecular point group: d2h

    Geometry (in Angstrom), charge = 0, multiplicity = 1:

       Center              X                  Y                   Z               Mass
    ------------   -----------------  -----------------  -----------------  -----------------
           O          0.000000000000     0.000000000000    -0.502525252550    15.994914619560
           O          0.000000000000     0.000000000000     0.502525252550    15.994914619560

  Basis Set: 6-31G
    Blend: 6-31G
  Basis Set: (6-31G AUX)
    Blend: CC-PVDZ-JKFIT

  -Total Gradient:
     Atom            X                  Y                   Z
    ------   -----------------  -----------------  -----------------
       1        0.000000000000     0.000000000000     0.697955009299
       2       -0.000000000000     0.000000000000    -0.697955009299

*** Psi4 exiting successfully. Buy a developer a beer!
