                               Psi4 1.2a1.dev429

  ==> Input File <==

--------------------------------------------------------------------------
# density-fitted hartree fock energies and gradients with 6-31g
molecule o2 {
0 3
O 0.0000000000 0.0000000000 0.0000000000
O 0.0000000000 0.0000000000 1.0050505051
}

set basis 6-31g
set reference rohf

gradient('scf')
--------------------------------------------------------------------------

    Molecular point group: d2h
  Charge       = 0
  Multiplicity = 3
  Basis Set: 6-31G
    Blend: 6-31G
  Basis Set: (6-31G AUX)
    Blend: CC-PVDZ-JKFIT

    Orbital Energies (a.u.)
    -----------------------

    Doubly Occupied:

       1Ag   -20.713594     1B1u  -20.711109     2Ag    -1.928919
       2B1u   -1.021066     1B2u   -0.821752     1B3u   -0.821752
       3Ag    -0.781250

    Singly Occupied:

       1B3g   -0.125868     1B2g   -0.125868

  @DF-ROHF Final Energy:  -149.43273322171979

   => Energetics <=

    Nuclear Repulsion Energy =             33.6971537031268724
    One-Electron Energy =                -271.7480053348662068
    Two-Electron Energy =                  88.6181184100195480
    Total Energy =                       -149.4327332217197863
    Molecular point group: d2h

    Geometry (in Angstrom), charge = 0, multiplicity = 3:

       Center              X                  Y                   Z               Mass
    ------------   -----------------  -----------------  -----------------  -----------------
           O          0.000000000000     0.000000000000    -0.502525252550    15.994914619560
           O          0.000000000000     0.000000000000     0.502525252550    15.994914619560

  Basis Set: 6-31G
    Blend: 6-31G
  Basis Set: (6-31G AUX)
    Blend: CC-PVDZ-JKFIT

  -Total Gradient:
     Atom            X                  Y                   Z
    ------   -----------------  -----------------  -----------------
       1        0.000000000000     0.000000000000     0.693254786985
       2       -0.000000000000     0.000000000000    -0.693254786985

*** Psi4 exiting successfully. Buy a developer a beer!
