                               Psi4 1.2a1.dev429

  ==> Input File <==

--------------------------------------------------------------------------
# density-fitted hartree fock energies and gradients with 6-31g
molecule o2 {
0 3
O 0.0000000000 0.0000000000 0.0000000000
O 0.0000000000 0.0000000000 1.2142857143
}

set basis 6-31g
set reference rohf

energy('scf')
--------------------------------------------------------------------------

    Molecular point group: d2h

    Geometry (in Angstrom), charge = 0, multiplicity = 3:

       Center              X                  Y                   Z               Mass
    ------------   -----------------  -----------------  -----------------  -----------------
           O          0.000000000000     0.000000000000    -0.607142857150    15.994914619560
           O          0.000000000000     0.000000000000     0.607142857150    15.994914619560

  Charge       = 0
  Multiplicity = 3
  Basis Set: 6-31G
    Blend: 6-31G
  Basis Set: (6-31G AUX)
    Blend: CC-PVDZ-JKFIT

    Orbital Energies (a.u.)
    -----------------------

    Doubly Occupied:

       1Ag   -20.749718     1B1u  -20.748907     2Ag    -1.683563
       2B1u   -1.103625     3Ag    -0.721748     1B2u   -0.713096
       1B3u   -0.713096

    Singly Occupied:

       1B2g   -0.231950     1B3g   -0.231950

  @DF-ROHF Final Energy:  -149.52727182254108

   => Energetics <=

    Nuclear Repulsion Energy =             27.8907516994742259
    One-Electron Energy =                -260.8583880788442002
    Two-Electron Energy =                  83.4403645568288539
    Total Energy =                       -149.5272718225411097
*** Psi4 exiting successfully. Buy a developer a beer!
