                               Psi4 1.2a1.dev429

  ==> Input File <==

--------------------------------------------------------------------------
# density-fitted hartree fock energies and gradients with 6-31g
molecule h2o {
0 1
O 0.0000000000 0.0000000000 0.0000000000
H 0.0000000000 0.0000000000 1.2000000000
H 0.0000000000 1.2000000000 0.0000000000
}

set basis 6-31g

gradient('mp2')
--------------------------------------------------------------------------

    Molecular point group: c2v
  Charge       = 0
  Multiplicity = 1
  Basis Set: 6-31G
    Blend: 6-31G
  Basis Set: (6-31G AUX)
    Blend: CC-PVDZ-JKFIT

    Orbital Energies (a.u.)
    -----------------------

    Doubly Occupied:

       1A1   -20.617554     2A1    -1.274889     1B2    -0.581568
       3A1    -0.548358     1B1    -0.504230

  @DF-RHF Final Energy:   -75.90714354660091

   => Energetics <=

    Nuclear Repulsion Energy =              7.3675167750694648
    One-Electron Energy =                -119.4961222280063566
    Two-Electron Energy =                  36.2214619063359962
    Total Energy =                        -75.9071435466009063
  Basis Set: (6-31G AUX)
    Blend: CC-PVDZ-RI
    Molecular point group: c2v

    Geometry (in Angstrom), charge = 0, multiplicity = 1:

       Center              X                  Y                   Z               Mass
    ------------   -----------------  -----------------  -----------------  -----------------
           O          0.000000000000     0.000000000000    -0.094962918968    15.994914619560
           H          0.000000000000    -0.848528137424     0.753565218456     1.007825032070
           H         -0.000000000000     0.848528137424     0.753565218456     1.007825032070

  Basis Set: 6-31G
    Blend: 6-31G
  Basis Set: (6-31G AUX)
    Blend: CC-PVDZ-JKFIT
  Basis Set: (6-31G AUX)
    Blend: CC-PVDZ-JKFIT
	 Reference Energy          =     -75.9071435466009063 [Eh]
	 Singles Energy            =      -0.0000000000000000 [Eh]
	 Same-Spin Energy          =      -0.0354957763518793 [Eh]
	 Opposite-Spin Energy      =      -0.1189697726939790 [Eh]
	 Correlation Energy        =      -0.1544655490458584 [Eh]
	 Total Energy              =     -76.0616090956467588 [Eh]

	 ================> DF-SCS-MP2 Energies <==================
	-----------------------------------------------------------
	 SCS Same-Spin Scale       =       0.3333333333333333 [-]
	 SCS Opposite-Spin Scale   =       1.2000000000000000 [-]
	 SCS Same-Spin Energy      =      -0.0118319254506264 [Eh]
	 SCS Opposite-Spin Energy  =      -0.1427637272327748 [Eh]
	 SCS Correlation Energy    =      -0.1545956526834013 [Eh]
	 SCS Total Energy          =     -76.0617391992843039 [Eh]
	-----------------------------------------------------------

  -Total Gradient:
     Atom            X                  Y                   Z
    ------   -----------------  -----------------  -----------------
       1       -0.000000000000     0.000000000001    -0.137227446345
       2       -0.000000000000    -0.053520892998     0.068613723174
       3        0.000000000000     0.053520892996     0.068613723172

*** Psi4 exiting successfully. Buy a developer a beer!
