                               Psi4 1.2a1.dev429

  ==> Input File <==

--------------------------------------------------------------------------
# density-fitted hartree fock energies and gradients with 6-31g
molecule h2o {
0 1
O 0.0000000000 0.0000000000 0.0000000000
H 0.0000000000 0.0000000000 1.1000000000
H 0.0000000000 0.4500000000 -0.7794228634
}

set basis 6-31g

gradient('mp2')
--------------------------------------------------------------------------

    Molecular point group: cs
  Charge       = 0
  Multiplicity = 1
  Basis Set: 6-31G
    Blend: 6-31G
  Basis Set: (6-31G AUX)
    Blend: CC-PVDZ-JKFIT

    Orbital Energies (a.u.)
    -----------------------

    Doubly Occupied:

       1Ap   -20.521820     2Ap    -1.296004     3Ap    -0.729553
       4Ap    -0.476522     1App   -0.469740

  @DF-RHF Final Energy:   -75.93469298510794

   => Energetics <=

    Nuclear Repulsion Energy =              8.8261829256140665
    One-Electron Energy =                -122.5344759249976931
    Two-Electron Energy =                  37.7736000142756936
    Total Energy =                        -75.9346929851079437
  Basis Set: (6-31G AUX)
    Blend: CC-PVDZ-RI
    Molecular point group: cs

    Geometry (in Angstrom), charge = 0, multiplicity = 1:

       Center              X                  Y                   Z               Mass
    ------------   -----------------  -----------------  -----------------  -----------------
           O          0.025180846486     0.017938674808     0.000000000000    15.994914619560
           H          0.025180846486    -1.082061325192     0.000000000000     1.007825032070
           H         -0.424819153514     0.797361538208     0.000000000000     1.007825032070

  Basis Set: 6-31G
    Blend: 6-31G
  Basis Set: (6-31G AUX)
    Blend: CC-PVDZ-JKFIT
  Basis Set: (6-31G AUX)
    Blend: CC-PVDZ-JKFIT
	 Reference Energy          =     -75.9346929851079437 [Eh]
	 Singles Energy            =      -0.0000000000000000 [Eh]
	 Same-Spin Energy          =      -0.0311334898762157 [Eh]
	 Opposite-Spin Energy      =      -0.0984533903624572 [Eh]
	 Correlation Energy        =      -0.1295868802386729 [Eh]
	 Total Energy              =     -76.0642798653466201 [Eh]

	 ================> DF-SCS-MP2 Energies <==================
	-----------------------------------------------------------
	 SCS Same-Spin Scale       =       0.3333333333333333 [-]
	 SCS Opposite-Spin Scale   =       1.2000000000000000 [-]
	 SCS Same-Spin Energy      =      -0.0103778299587386 [Eh]
	 SCS Opposite-Spin Energy  =      -0.1181440684349486 [Eh]
	 SCS Correlation Energy    =      -0.1285218983936872 [Eh]
	 SCS Total Energy          =     -76.0632148835016295 [Eh]
	-----------------------------------------------------------

  -Total Gradient:
     Atom            X                  Y                   Z
    ------   -----------------  -----------------  -----------------
       1       -0.099294518571     0.151157728054     0.000000000000
       2        0.030536816334    -0.106711446469     0.000000000000
       3        0.068757702236    -0.044446281585    -0.000000000000

*** Psi4 exiting successfully. Buy a developer a beer!
