                               Psi4 1.2a1.dev429

  ==> Input File <==

--------------------------------------------------------------------------
# density-fitted hartree fock energies and gradients with 6-31g
molecule h2o {
0 1
O 0.0000000000 0.0000000000 0.0000000000
H 0.0000000000 0.0000000000 1.2000000000
H 0.0000000000 0.7713451316 -0.9192533317
}

set basis 6-31g

gradient('mp2')
--------------------------------------------------------------------------

    Molecular point group: c2v
  Charge       = 0
  Multiplicity = 1
  Basis Set: 6-31G
    Blend: 6-31G
  Basis Set: (6-31G AUX)
    Blend: CC-PVDZ-JKFIT

    Orbital Energies (a.u.)
    -----------------------

    Doubly Occupied:

       1A1   -20.561046     2A1    -1.227249     1B2    -0.615284
       3A1    -0.464845     1B1    -0.464441

  @DF-RHF Final Energy:   -75.88117172533262

   => Energetics <=

    Nuclear Repulsion Energy =              7.2903372076307269
    One-Electron Energy =                -119.6772868392484810
    Two-Electron Energy =                  36.5057779062851324
    Total Energy =                        -75.8811717253326208
  Basis Set: (6-31G AUX)
    Blend: CC-PVDZ-RI
    Molecular point group: c2v

    Geometry (in Angstrom), charge = 0, multiplicity = 1:

       Center              X                  Y                   Z               Mass
    ------------   -----------------  -----------------  -----------------  -----------------
           O          0.000000000000     0.000000000000    -0.045932569196    15.994914619560
           H          0.000000000000    -1.127631144919     0.364491602791     1.007825032070
           H         -0.000000000000     1.127631144919     0.364491602791     1.007825032070

  Basis Set: 6-31G
    Blend: 6-31G
  Basis Set: (6-31G AUX)
    Blend: CC-PVDZ-JKFIT
  Basis Set: (6-31G AUX)
    Blend: CC-PVDZ-JKFIT
	 Reference Energy          =     -75.8811717253326208 [Eh]
	 Singles Energy            =      -0.0000000000000000 [Eh]
	 Same-Spin Energy          =      -0.0343044688657486 [Eh]
	 Opposite-Spin Energy      =      -0.1122235255252794 [Eh]
	 Correlation Energy        =      -0.1465279943910280 [Eh]
	 Total Energy              =     -76.0276997197236426 [Eh]

	 ================> DF-SCS-MP2 Energies <==================
	-----------------------------------------------------------
	 SCS Same-Spin Scale       =       0.3333333333333333 [-]
	 SCS Opposite-Spin Scale   =       1.2000000000000000 [-]
	 SCS Same-Spin Energy      =      -0.0114348229552495 [Eh]
	 SCS Opposite-Spin Energy  =      -0.1346682306303353 [Eh]
	 SCS Correlation Energy    =      -0.1461030535855848 [Eh]
	 SCS Total Energy          =     -76.0272747789182120 [Eh]
	-----------------------------------------------------------

  -Total Gradient:
     Atom            X                  Y                   Z
    ------   -----------------  -----------------  -----------------
       1       -0.000000000000     0.000000000004    -0.002398557996
       2        0.000000000000    -0.113413692050     0.001199278999
       3        0.000000000000     0.113413692045     0.001199278998

*** Psi4 exiting successfully. Buy a developer a beer!
