                               Psi4 1.2a1.dev429

  ==> Input File <==

--------------------------------------------------------------------------
# density-fitted hartree fock energies and gradients with 6-31g
molecule h2o {
0 1
O 0.0000000000 0.0000000000 0.0000000000
H 0.0000000000 0.0000000000 1.2000000000
H 0.0000000000 1.3787308542 -0.2431074487
}

set basis 6-31g

gradient('mp2')
--------------------------------------------------------------------------

    Molecular point group: cs
  Charge       = 0
  Multiplicity = 1
  Basis Set: 6-31G
    Blend: 6-31G
  Basis Set: (6-31G AUX)
    Blend: CC-PVDZ-JKFIT

    Orbital Energies (a.u.)
    -----------------------

    Doubly Occupied:

       1Ap   -20.624167     2Ap    -1.248902     3Ap    -0.568865
       4Ap    -0.507022     1App   -0.499729

  @DF-RHF Final Energy:   -75.86267889091783

   => Energetics <=

    Nuclear Repulsion Energy =              6.8168552349459670
    One-Electron Energy =                -118.4616980385352178
    Two-Electron Energy =                  35.7821639126714217
    Total Energy =                        -75.8626788909178345
  Basis Set: (6-31G AUX)
    Blend: CC-PVDZ-RI
    Molecular point group: cs

    Geometry (in Angstrom), charge = 0, multiplicity = 1:

       Center              X                  Y                   Z               Mass
    ------------   -----------------  -----------------  -----------------  -----------------
           O          0.077150244412     0.053545254307     0.000000000000    15.994914619560
           H          0.077150244412    -1.146454745693     0.000000000000     1.007825032070
           H         -1.301580609788     0.296652703007     0.000000000000     1.007825032070

  Basis Set: 6-31G
    Blend: 6-31G
  Basis Set: (6-31G AUX)
    Blend: CC-PVDZ-JKFIT
  Basis Set: (6-31G AUX)
    Blend: CC-PVDZ-JKFIT
	 Reference Energy          =     -75.8626788909178345 [Eh]
	 Singles Energy            =      -0.0000000000000000 [Eh]
	 Same-Spin Energy          =      -0.0367912232280302 [Eh]
	 Opposite-Spin Energy      =      -0.1260190881264832 [Eh]
	 Correlation Energy        =      -0.1628103113545134 [Eh]
	 Total Energy              =     -76.0254892022723539 [Eh]

	 ================> DF-SCS-MP2 Energies <==================
	-----------------------------------------------------------
	 SCS Same-Spin Scale       =       0.3333333333333333 [-]
	 SCS Opposite-Spin Scale   =       1.2000000000000000 [-]
	 SCS Same-Spin Energy      =      -0.0122637410760101 [Eh]
	 SCS Opposite-Spin Energy  =      -0.1512229057517799 [Eh]
	 SCS Correlation Energy    =      -0.1634866468277899 [Eh]
	 SCS Total Energy          =     -76.0261655377456265 [Eh]
	-----------------------------------------------------------

  -Total Gradient:
     Atom            X                  Y                   Z
    ------   -----------------  -----------------  -----------------
       1        0.093001010428     0.065456459219     0.000000000000
       2        0.006270209527    -0.088418016314    -0.000000000000
       3       -0.099271219955     0.022961557094    -0.000000000000

*** Psi4 exiting successfully. Buy a developer a beer!
