                               Psi4 1.2a1.dev429

  ==> Input File <==

--------------------------------------------------------------------------
# density-fitted hartree fock energies and gradients with 6-31g
molecule h2o {
0 1
O 0.0000000000 0.0000000000 0.0000000000
H 0.0000000000 0.0000000000 1.4000000000
H 0.0000000000 1.2990381057 -0.7500000000
}

set basis 6-31g

gradient('mp2')
--------------------------------------------------------------------------

    Molecular point group: cs
  Charge       = 0
  Multiplicity = 1
  Basis Set: 6-31G
    Blend: 6-31G
  Basis Set: (6-31G AUX)
    Blend: CC-PVDZ-JKFIT

    Orbital Energies (a.u.)
    -----------------------

    Doubly Occupied:

       1Ap   -20.625579     2Ap    -1.210426     3Ap    -0.525563
       1App   -0.488781     4Ap    -0.465416

  @DF-RHF Final Energy:   -75.78047615137183

   => Energetics <=

    Nuclear Repulsion Energy =              6.0568103296515687
    One-Electron Energy =                -117.0430400959514827
    Two-Electron Energy =                  35.2057536149280850
    Total Energy =                        -75.7804761513718290
  Basis Set: (6-31G AUX)
    Blend: CC-PVDZ-RI
    Molecular point group: cs

    Geometry (in Angstrom), charge = 0, multiplicity = 1:

       Center              X                  Y                   Z               Mass
    ------------   -----------------  -----------------  -----------------  -----------------
           O          0.072690842488     0.036372333814     0.000000000000    15.994914619560
           H          0.072690842488    -1.363627666186     0.000000000000     1.007825032070
           H         -1.226347263212     0.786372333814     0.000000000000     1.007825032070

  Basis Set: 6-31G
    Blend: 6-31G
  Basis Set: (6-31G AUX)
    Blend: CC-PVDZ-JKFIT
  Basis Set: (6-31G AUX)
    Blend: CC-PVDZ-JKFIT
	 Reference Energy          =     -75.7804761513718290 [Eh]
	 Singles Energy            =      -0.0000000000000000 [Eh]
	 Same-Spin Energy          =      -0.0387685178557200 [Eh]
	 Opposite-Spin Energy      =      -0.1370982402736659 [Eh]
	 Correlation Energy        =      -0.1758667581293859 [Eh]
	 Total Energy              =     -75.9563429095012168 [Eh]

	 ================> DF-SCS-MP2 Energies <==================
	-----------------------------------------------------------
	 SCS Same-Spin Scale       =       0.3333333333333333 [-]
	 SCS Opposite-Spin Scale   =       1.2000000000000000 [-]
	 SCS Same-Spin Energy      =      -0.0129228392852400 [Eh]
	 SCS Opposite-Spin Energy  =      -0.1645178883283990 [Eh]
	 SCS Correlation Energy    =      -0.1774407276136390 [Eh]
	 SCS Total Energy          =     -75.9579168789854720 [Eh]
	-----------------------------------------------------------

  -Total Gradient:
     Atom            X                  Y                   Z
    ------   -----------------  -----------------  -----------------
       1        0.048519054083     0.032102590637     0.000000000000
       2        0.022884200437    -0.097990048187    -0.000000000000
       3       -0.071403254520     0.065887457550    -0.000000000000

*** Psi4 exiting successfully. Buy a developer a beer!
