                               Psi4 1.3.1 release

  ==> Input File <==

--------------------------------------------------------------------------
# density fitted hartree fock
molecule h2o {
0 1
H 0.0000000000 0.0000000000 1.1000000000
H 0.0000000000 0.8286887254 -0.1891427939
O 0.0000000000 0.0000000000 0.0000000000
}

set basis 6-31g
energy('hf')

--------------------------------------------------------------------------

    Molecular point group: cs

    Geometry (in Angstrom), charge = 0, multiplicity = 1:

       Center              X                  Y                   Z               Mass
    ------------   -----------------  -----------------  -----------------  -----------------
         H            0.046371296849    -1.049030765598     0.000000000000     1.007825032230
         H           -0.782317428551     0.240112028302     0.000000000000     1.007825032230
         O            0.046371296849     0.050969234402     0.000000000000    15.994914619570

  Charge       = 0
  Multiplicity = 1
  Basis Set: 6-31G
    Blend: 6-31G
  Basis Set: (6-31G AUX)
    Blend: CC-PVDZ-JKFIT

    Orbital Energies [Eh]
    ---------------------

    Doubly Occupied:

       1Ap   -20.563835     2Ap    -1.365150     3Ap    -0.701675
       4Ap    -0.556835     1App   -0.502644

  @DF-RHF Final Energy:   -75.95288342244692

   => Energetics <=

    Nuclear Repulsion Energy =              9.1743519072239081
    One-Electron Energy =                -122.8741849291395738
    Two-Electron Energy =                  37.7469495994687492
    Total Energy =                        -75.9528834224469165

  Dipole Moment: [D]
     X:    -2.0186      Y:    -1.7272      Z:     0.0000     Total:     2.6567

*** Psi4 exiting successfully. Buy a developer a beer!
