                               Psi4 1.2a1.dev429

  ==> Input File <==

--------------------------------------------------------------------------
# density-fitted hartree fock energies and gradients with 6-31g
molecule h20 {
0 1
O 0.0000000000 0.0000000000 0.0000000000
O 0.0000000000 0.0000000000 1.3232323232
}

set basis 6-31g

gradient('hf')
--------------------------------------------------------------------------

    Molecular point group: d2h
  Charge       = 0
  Multiplicity = 1
  Basis Set: 6-31G
    Blend: 6-31G
  Basis Set: (6-31G AUX)
    Blend: CC-PVDZ-JKFIT

    Orbital Energies (a.u.)
    -----------------------

    Doubly Occupied:

       1Ag   -20.776226     1B1u  -20.775659     2Ag    -1.594531
       2B1u   -1.145258     1B3u   -0.746560     3Ag    -0.694286
       1B2u   -0.609641     1B2g   -0.524488

  @DF-RHF Final Energy:  -149.44054433509140

   => Energetics <=

    Nuclear Repulsion Energy =             25.5944030054056633
    One-Electron Energy =                -256.3365963037517190
    Two-Electron Energy =                  81.3016489632546495
    Total Energy =                       -149.4405443350914027
    Molecular point group: d2h

    Geometry (in Angstrom), charge = 0, multiplicity = 1:

       Center              X                  Y                   Z               Mass
    ------------   -----------------  -----------------  -----------------  -----------------
           O          0.000000000000     0.000000000000    -0.661616161600    15.994914619560
           O          0.000000000000     0.000000000000     0.661616161600    15.994914619560

  Basis Set: 6-31G
    Blend: 6-31G
  Basis Set: (6-31G AUX)
    Blend: CC-PVDZ-JKFIT

  -Total Gradient:
     Atom            X                  Y                   Z
    ------   -----------------  -----------------  -----------------
       1       -0.000000000000     0.000000000000    -0.147776485042
       2        0.000000000000     0.000000000000     0.147776485042

*** Psi4 exiting successfully. Buy a developer a beer!
