                               Psi4 1.2a1.dev429

  ==> Input File <==

--------------------------------------------------------------------------
# density-fitted hartree fock energies and gradients with 6-31g
molecule h20 {
0 1
O 0.0000000000 0.0000000000 0.0000000000
H 0.0000000000 0.0000000000 0.7000000000
H 0.0000000000 0.7000000000 0.0000000000
}

set basis 6-31g

gradient('hf')
--------------------------------------------------------------------------

    Molecular point group: c2v
  Charge       = 0
  Multiplicity = 1
  Basis Set: 6-31G
    Blend: 6-31G
  Basis Set: (6-31G AUX)
    Blend: CC-PVDZ-JKFIT

    Orbital Energies (a.u.)
    -----------------------

    Doubly Occupied:

       1A1   -20.520591     2A1    -1.579434     1B2    -0.832224
       3A1    -0.626828     1B1    -0.529246

  @DF-RHF Final Energy:   -75.70268719336406

   => Energetics <=

    Nuclear Repulsion Energy =             12.6300287572619396
    One-Electron Energy =                -128.4887863352035993
    Two-Electron Energy =                  40.1560703845775961
    Total Energy =                        -75.7026871933640564
    Molecular point group: c2v

    Geometry (in Angstrom), charge = 0, multiplicity = 1:

       Center              X                  Y                   Z               Mass
    ------------   -----------------  -----------------  -----------------  -----------------
           O          0.000000000000     0.000000000000    -0.055395036065    15.994914619560
           H          0.000000000000    -0.494974746831     0.439579710766     1.007825032070
           H         -0.000000000000     0.494974746831     0.439579710766     1.007825032070

  Basis Set: 6-31G
    Blend: 6-31G
  Basis Set: (6-31G AUX)
    Blend: CC-PVDZ-JKFIT

  -Total Gradient:
     Atom            X                  Y                   Z
    ------   -----------------  -----------------  -----------------
       1        0.000000000000     0.000000000000     0.914321286114
       2       -0.000000000000     0.599442842534    -0.457160643057
       3        0.000000000000    -0.599442842534    -0.457160643057

*** Psi4 exiting successfully. Buy a developer a beer!
