                               Psi4 1.2a1.dev429

  ==> Input File <==

--------------------------------------------------------------------------
# density-fitted hartree fock energies and gradients with 6-31g
molecule h2o {
0 1
O 0.0000000000 0.0000000000 0.0000000000
H 0.0000000000 0.0000000000 1.4000000000
H 0.0000000000 0.0000000000 -1.5000000000
}

set basis 6-31g

gradient('mp2')
--------------------------------------------------------------------------

    Molecular point group: c2v
  Charge       = 0
  Multiplicity = 1
  Basis Set: 6-31G
    Blend: 6-31G
  Basis Set: (6-31G AUX)
    Blend: CC-PVDZ-JKFIT

    Orbital Energies (a.u.)
    -----------------------

    Doubly Occupied:

       1A1   -20.508022     2A1    -1.129498     3A1    -0.494184
       1B2    -0.405829     1B1    -0.405829

  @DF-RHF Final Energy:   -75.71119861424523

   => Energetics <=

    Nuclear Repulsion Energy =              6.0286231086985547
    One-Electron Energy =                -117.5929190712324157
    Two-Electron Energy =                  35.8530973482886282
    Total Energy =                        -75.7111986142452338
  Basis Set: (6-31G AUX)
    Blend: CC-PVDZ-RI
    Molecular point group: c2v

    Geometry (in Angstrom), charge = 0, multiplicity = 1:

       Center              X                  Y                   Z               Mass
    ------------   -----------------  -----------------  -----------------  -----------------
           O          0.000000000000     0.000000000000     0.005595743664    15.994914619560
           H          0.000000000000     0.000000000000     1.405595743664     1.007825032070
           H          0.000000000000     0.000000000000    -1.494404256336     1.007825032070

  Basis Set: 6-31G
    Blend: 6-31G
  Basis Set: (6-31G AUX)
    Blend: CC-PVDZ-JKFIT
  Basis Set: (6-31G AUX)
    Blend: CC-PVDZ-JKFIT
	 Reference Energy          =     -75.7111986142452338 [Eh]
	 Singles Energy            =      -0.0000000000000000 [Eh]
	 Same-Spin Energy          =      -0.0345910221439779 [Eh]
	 Opposite-Spin Energy      =      -0.1137392692975675 [Eh]
	 Correlation Energy        =      -0.1483302914415454 [Eh]
	 Total Energy              =     -75.8595289056867728 [Eh]

	 ================> DF-SCS-MP2 Energies <==================
	-----------------------------------------------------------
	 SCS Same-Spin Scale       =       0.3333333333333333 [-]
	 SCS Opposite-Spin Scale   =       1.2000000000000000 [-]
	 SCS Same-Spin Energy      =      -0.0115303407146593 [Eh]
	 SCS Opposite-Spin Energy  =      -0.1364871231570810 [Eh]
	 SCS Correlation Energy    =      -0.1480174638717403 [Eh]
	 SCS Total Energy          =     -75.8592160781169724 [Eh]
	-----------------------------------------------------------

  -Total Gradient:
     Atom            X                  Y                   Z
    ------   -----------------  -----------------  -----------------
       1        0.000000000000    -0.000000000000    -0.001302839183
       2       -0.000000000000     0.000000000000     0.118730094838
       3        0.000000000000     0.000000000000    -0.117427255655

*** Psi4 exiting successfully. Buy a developer a beer!
