                               Psi4 1.2a1.dev429

  ==> Input File <==

--------------------------------------------------------------------------
# density-fitted hartree fock energies and gradients with 6-31g
molecule h20 {
0 1
O 0.0000000000 0.0000000000 0.0000000000
H 0.0000000000 0.0000000000 1.4000000000
H 0.0000000000 1.3000000000 0.0000000000
}

set basis 6-31g

gradient('hf')
--------------------------------------------------------------------------

    Molecular point group: cs
  Charge       = 0
  Multiplicity = 1
  Basis Set: 6-31G
    Blend: 6-31G
  Basis Set: (6-31G AUX)
    Blend: CC-PVDZ-JKFIT

    Orbital Energies (a.u.)
    -----------------------

    Doubly Occupied:

       1Ap   -20.639445     2Ap    -1.244014     3Ap    -0.542754
       4Ap    -0.515328     1App   -0.505806

  @DF-RHF Final Energy:   -75.83807627578776

   => Energetics <=

    Nuclear Repulsion Energy =              6.5573289034215607
    One-Electron Energy =                -117.8961151234328355
    Two-Electron Energy =                  35.5007099442235159
    Total Energy =                        -75.8380762757877562
    Molecular point group: cs

    Geometry (in Angstrom), charge = 0, multiplicity = 1:

       Center              X                  Y                   Z               Mass
    ------------   -----------------  -----------------  -----------------  -----------------
           O          0.072744667627     0.078340411291     0.000000000000    15.994914619560
           H          0.072744667627    -1.321659588709     0.000000000000     1.007825032070
           H         -1.227255332373     0.078340411291     0.000000000000     1.007825032070

  Basis Set: 6-31G
    Blend: 6-31G
  Basis Set: (6-31G AUX)
    Blend: CC-PVDZ-JKFIT

  -Total Gradient:
     Atom            X                  Y                   Z
    ------   -----------------  -----------------  -----------------
       1        0.131663921710     0.133423806263     0.000000000000
       2       -0.007189153652    -0.125681640804     0.000000000000
       3       -0.124474768058    -0.007742165459     0.000000000000

*** Psi4 exiting successfully. Buy a developer a beer!
