                               Psi4 1.2a1.dev429

  ==> Input File <==

--------------------------------------------------------------------------
# density-fitted hartree fock energies and gradients with 6-31g
molecule h2o {
0 1
O 0.0000000000 0.0000000000 0.0000000000
H 0.0000000000 0.0000000000 0.9000000000
H 0.0000000000 1.1490666647 -0.9641814145
}

set basis 6-31g

gradient('mp2')
--------------------------------------------------------------------------

    Molecular point group: cs
  Charge       = 0
  Multiplicity = 1
  Basis Set: 6-31G
    Blend: 6-31G
  Basis Set: (6-31G AUX)
    Blend: CC-PVDZ-JKFIT

    Orbital Energies (a.u.)
    -----------------------

    Doubly Occupied:

       1Ap   -20.563782     2Ap    -1.288960     3Ap    -0.639839
       1App   -0.478156     4Ap    -0.464124

  @DF-RHF Final Energy:   -75.85055712071689

   => Energetics <=

    Nuclear Repulsion Energy =              7.7677237310399860
    One-Electron Energy =                -120.3668399301598129
    Two-Electron Energy =                  36.7485590784029483
    Total Energy =                        -75.8505571207168856
  Basis Set: (6-31G AUX)
    Blend: CC-PVDZ-RI
    Molecular point group: cs

    Geometry (in Angstrom), charge = 0, multiplicity = 1:

       Center              X                  Y                   Z               Mass
    ------------   -----------------  -----------------  -----------------  -----------------
           O          0.064298825081    -0.003591427435     0.000000000000    15.994914619560
           H          0.064298825081    -0.903591427435     0.000000000000     1.007825032070
           H         -1.084767839619     0.960589987065     0.000000000000     1.007825032070

  Basis Set: 6-31G
    Blend: 6-31G
  Basis Set: (6-31G AUX)
    Blend: CC-PVDZ-JKFIT
  Basis Set: (6-31G AUX)
    Blend: CC-PVDZ-JKFIT
	 Reference Energy          =     -75.8505571207168856 [Eh]
	 Singles Energy            =      -0.0000000000000000 [Eh]
	 Same-Spin Energy          =      -0.0334418323471811 [Eh]
	 Opposite-Spin Energy      =      -0.1145190502159151 [Eh]
	 Correlation Energy        =      -0.1479608825630962 [Eh]
	 Total Energy              =     -75.9985180032799832 [Eh]

	 ================> DF-SCS-MP2 Energies <==================
	-----------------------------------------------------------
	 SCS Same-Spin Scale       =       0.3333333333333333 [-]
	 SCS Opposite-Spin Scale   =       1.2000000000000000 [-]
	 SCS Same-Spin Energy      =      -0.0111472774490604 [Eh]
	 SCS Opposite-Spin Energy  =      -0.1374228602590981 [Eh]
	 SCS Correlation Energy    =      -0.1485701377081585 [Eh]
	 SCS Total Energy          =     -75.9991272584250481 [Eh]
	-----------------------------------------------------------

  -Total Gradient:
     Atom            X                  Y                   Z
    ------   -----------------  -----------------  -----------------
       1        0.027308670419    -0.189166515508     0.000000000000
       2        0.040500596439     0.100545919998    -0.000000000000
       3       -0.067809266859     0.088620595510    -0.000000000000

*** Psi4 exiting successfully. Buy a developer a beer!
