                               Psi4 1.2a1.dev429

  ==> Input File <==

--------------------------------------------------------------------------
# density-fitted hartree fock energies and gradients with 6-31g
molecule h2o {
0 1
O 0.0000000000 0.0000000000 0.0000000000
H 0.0000000000 0.0000000000 1.3000000000
H 0.0000000000 0.7517540966 -0.2736161147
}

set basis 6-31g

gradient('mp2')
--------------------------------------------------------------------------

    Molecular point group: cs
  Charge       = 0
  Multiplicity = 1
  Basis Set: 6-31G
    Blend: 6-31G
  Basis Set: (6-31G AUX)
    Blend: CC-PVDZ-JKFIT

    Orbital Energies (a.u.)
    -----------------------

    Doubly Occupied:

       1Ap   -20.566632     2Ap    -1.360430     3Ap    -0.686597
       4Ap    -0.521368     1App   -0.498281

  @DF-RHF Final Energy:   -75.88493611549717

   => Energetics <=

    Nuclear Repulsion Energy =              8.8516812035772379
    One-Electron Energy =                -122.2066190840612165
    Two-Electron Energy =                  37.4700017649868045
    Total Energy =                        -75.8849361154971689
  Basis Set: (6-31G AUX)
    Blend: CC-PVDZ-RI
    Molecular point group: cs

    Geometry (in Angstrom), charge = 0, multiplicity = 1:

       Center              X                  Y                   Z               Mass
    ------------   -----------------  -----------------  -----------------  -----------------
           O          0.042066232226     0.057433811226     0.000000000000    15.994914619560
           H          0.042066232226    -1.242566188774     0.000000000000     1.007825032070
           H         -0.709687864374     0.331049925926     0.000000000000     1.007825032070

  Basis Set: 6-31G
    Blend: 6-31G
  Basis Set: (6-31G AUX)
    Blend: CC-PVDZ-JKFIT
  Basis Set: (6-31G AUX)
    Blend: CC-PVDZ-JKFIT
	 Reference Energy          =     -75.8849361154971689 [Eh]
	 Singles Energy            =      -0.0000000000000000 [Eh]
	 Same-Spin Energy          =      -0.0309133882549973 [Eh]
	 Opposite-Spin Energy      =      -0.1040532404406299 [Eh]
	 Correlation Energy        =      -0.1349666286956272 [Eh]
	 Total Energy              =     -76.0199027441927910 [Eh]

	 ================> DF-SCS-MP2 Energies <==================
	-----------------------------------------------------------
	 SCS Same-Spin Scale       =       0.3333333333333333 [-]
	 SCS Opposite-Spin Scale   =       1.2000000000000000 [-]
	 SCS Same-Spin Energy      =      -0.0103044627516658 [Eh]
	 SCS Opposite-Spin Energy  =      -0.1248638885287559 [Eh]
	 SCS Correlation Energy    =      -0.1351683512804217 [Eh]
	 SCS Total Energy          =     -76.0201044667775960 [Eh]
	-----------------------------------------------------------

  -Total Gradient:
     Atom            X                  Y                   Z
    ------   -----------------  -----------------  -----------------
       1       -0.319560854726     0.218172098595    -0.000000000000
       2        0.006758903535    -0.116009598922    -0.000000000000
       3        0.312801951191    -0.102162499673     0.000000000000

*** Psi4 exiting successfully. Buy a developer a beer!
