                               Psi4 1.2a1.dev429

  ==> Input File <==

--------------------------------------------------------------------------
# density-fitted hartree fock energies and gradients with 6-31g
molecule h2o {
0 1
O 0.0000000000 0.0000000000 0.0000000000
H 0.0000000000 0.0000000000 1.3000000000
H 0.0000000000 0.2257426310 -1.2802500789
}

set basis 6-31g

gradient('mp2')
--------------------------------------------------------------------------

    Molecular point group: c2v
  Charge       = 0
  Multiplicity = 1
  Basis Set: 6-31G
    Blend: 6-31G
  Basis Set: (6-31G AUX)
    Blend: CC-PVDZ-JKFIT

    Orbital Energies (a.u.)
    -----------------------

    Doubly Occupied:

       1A1   -20.515030     2A1    -1.163852     1B2    -0.559731
       1B1    -0.421351     3A1    -0.418539

  @DF-RHF Final Energy:   -75.79289890256594

   => Energetics <=

    Nuclear Repulsion Energy =              6.7172574055790726
    One-Electron Energy =                -118.8633057700792790
    Two-Electron Energy =                  36.3531494619342652
    Total Energy =                        -75.7928989025659376
  Basis Set: (6-31G AUX)
    Blend: CC-PVDZ-RI
    Molecular point group: c2v

    Geometry (in Angstrom), charge = 0, multiplicity = 1:

       Center              X                  Y                   Z               Mass
    ------------   -----------------  -----------------  -----------------  -----------------
           O          0.000000000000     0.000000000000    -0.012680231078    15.994914619560
           H          0.000000000000    -1.295053107513     0.100622234511     1.007825032070
           H         -0.000000000000     1.295053107513     0.100622234511     1.007825032070

  Basis Set: 6-31G
    Blend: 6-31G
  Basis Set: (6-31G AUX)
    Blend: CC-PVDZ-JKFIT
  Basis Set: (6-31G AUX)
    Blend: CC-PVDZ-JKFIT
	 Reference Energy          =     -75.7928989025659376 [Eh]
	 Singles Energy            =      -0.0000000000000000 [Eh]
	 Same-Spin Energy          =      -0.0344955230338985 [Eh]
	 Opposite-Spin Energy      =      -0.1099810039518753 [Eh]
	 Correlation Energy        =      -0.1444765269857738 [Eh]
	 Total Energy              =     -75.9373754295517074 [Eh]

	 ================> DF-SCS-MP2 Energies <==================
	-----------------------------------------------------------
	 SCS Same-Spin Scale       =       0.3333333333333333 [-]
	 SCS Opposite-Spin Scale   =       1.2000000000000000 [-]
	 SCS Same-Spin Energy      =      -0.0114985076779662 [Eh]
	 SCS Opposite-Spin Energy  =      -0.1319772047422504 [Eh]
	 SCS Correlation Energy    =      -0.1434757124202165 [Eh]
	 SCS Total Energy          =     -75.9363746149861498 [Eh]
	-----------------------------------------------------------

  -Total Gradient:
     Atom            X                  Y                   Z
    ------   -----------------  -----------------  -----------------
       1       -0.000000000000     0.000000000008     0.031714528288
       2        0.000000000000    -0.128629910667    -0.015857264145
       3        0.000000000000     0.128629910658    -0.015857264143

*** Psi4 exiting successfully. Buy a developer a beer!
