                               Psi4 1.2a1.dev429

  ==> Input File <==

--------------------------------------------------------------------------
# density-fitted hartree fock energies and gradients with 6-31g
molecule h2o {
0 1
O 0.0000000000 0.0000000000 0.0000000000
H 0.0000000000 0.0000000000 1.5000000000
H 0.0000000000 1.2000000000 0.0000000000
}

set basis 6-31g

gradient('mp2')
--------------------------------------------------------------------------

    Molecular point group: cs
  Charge       = 0
  Multiplicity = 1
  Basis Set: 6-31G
    Blend: 6-31G
  Basis Set: (6-31G AUX)
    Blend: CC-PVDZ-JKFIT

    Orbital Energies (a.u.)
    -----------------------

    Doubly Occupied:

       1Ap   -20.637043     2Ap    -1.250694     3Ap    -0.565137
       1App   -0.506478     4Ap    -0.497068

  @DF-RHF Final Energy:   -75.83736885507022

   => Energetics <=

    Nuclear Repulsion Energy =              6.6256051543173733
    One-Electron Energy =                -118.0131070289491362
    Two-Electron Energy =                  35.5501330195615424
    Total Energy =                        -75.8373688550702241
  Basis Set: (6-31G AUX)
    Blend: CC-PVDZ-RI
    Molecular point group: cs

    Geometry (in Angstrom), charge = 0, multiplicity = 1:

       Center              X                  Y                   Z               Mass
    ------------   -----------------  -----------------  -----------------  -----------------
           O          0.067148923963     0.083936154954     0.000000000000    15.994914619560
           H          0.067148923963    -1.416063845046     0.000000000000     1.007825032070
           H         -1.132851076037     0.083936154954     0.000000000000     1.007825032070

  Basis Set: 6-31G
    Blend: 6-31G
  Basis Set: (6-31G AUX)
    Blend: CC-PVDZ-JKFIT
  Basis Set: (6-31G AUX)
    Blend: CC-PVDZ-JKFIT
	 Reference Energy          =     -75.8373688550702241 [Eh]
	 Singles Energy            =      -0.0000000000000000 [Eh]
	 Same-Spin Energy          =      -0.0381513960792162 [Eh]
	 Opposite-Spin Energy      =      -0.1321001509783481 [Eh]
	 Correlation Energy        =      -0.1702515470575643 [Eh]
	 Total Energy              =     -76.0076204021277846 [Eh]

	 ================> DF-SCS-MP2 Energies <==================
	-----------------------------------------------------------
	 SCS Same-Spin Scale       =       0.3333333333333333 [-]
	 SCS Opposite-Spin Scale   =       1.2000000000000000 [-]
	 SCS Same-Spin Energy      =      -0.0127171320264054 [Eh]
	 SCS Opposite-Spin Energy  =      -0.1585201811740177 [Eh]
	 SCS Correlation Energy    =      -0.1712373132004231 [Eh]
	 SCS Total Energy          =     -76.0086061682706458 [Eh]
	-----------------------------------------------------------

  -Total Gradient:
     Atom            X                  Y                   Z
    ------   -----------------  -----------------  -----------------
       1        0.085158955483     0.097004969176    -0.000000000000
       2       -0.002166883207    -0.094296361737    -0.000000000000
       3       -0.082992072277    -0.002708607439     0.000000000000

*** Psi4 exiting successfully. Buy a developer a beer!
