                               Psi4 1.2a1.dev429

  ==> Input File <==

--------------------------------------------------------------------------
# density-fitted hartree fock energies and gradients with 6-31g
molecule h2o {
0 1
O 0.0000000000 0.0000000000 0.0000000000
H 0.0000000000 0.0000000000 1.0000000000
H 0.0000000000 0.1910129954 -1.0832885283
}

set basis 6-31g

gradient('mp2')
--------------------------------------------------------------------------

    Molecular point group: cs
  Charge       = 0
  Multiplicity = 1
  Basis Set: 6-31G
    Blend: 6-31G
  Basis Set: (6-31G AUX)
    Blend: CC-PVDZ-JKFIT

    Orbital Energies (a.u.)
    -----------------------

    Doubly Occupied:

       1Ap   -20.508782     2Ap    -1.249861     3Ap    -0.699273
       4Ap    -0.451116     1App   -0.450720

  @DF-RHF Final Energy:   -75.91564517355397

   => Energetics <=

    Nuclear Repulsion Energy =              8.3349286951946908
    One-Electron Energy =                -121.7816447671185642
    Two-Electron Energy =                  37.5310708983699115
    Total Energy =                        -75.9156451735539690
  Basis Set: (6-31G AUX)
    Blend: CC-PVDZ-RI
    Molecular point group: cs

    Geometry (in Angstrom), charge = 0, multiplicity = 1:

       Center              X                  Y                   Z               Mass
    ------------   -----------------  -----------------  -----------------  -----------------
           O          0.010688597587    -0.004660612545     0.000000000000    15.994914619560
           H          0.010688597587    -1.004660612545     0.000000000000     1.007825032070
           H         -0.180324397813     1.078627915755     0.000000000000     1.007825032070

  Basis Set: 6-31G
    Blend: 6-31G
  Basis Set: (6-31G AUX)
    Blend: CC-PVDZ-JKFIT
  Basis Set: (6-31G AUX)
    Blend: CC-PVDZ-JKFIT
	 Reference Energy          =     -75.9156451735539690 [Eh]
	 Singles Energy            =      -0.0000000000000000 [Eh]
	 Same-Spin Energy          =      -0.0317499470596018 [Eh]
	 Opposite-Spin Energy      =      -0.0992696517041334 [Eh]
	 Correlation Energy        =      -0.1310195987637352 [Eh]
	 Total Energy              =     -76.0466647723176976 [Eh]

	 ================> DF-SCS-MP2 Energies <==================
	-----------------------------------------------------------
	 SCS Same-Spin Scale       =       0.3333333333333333 [-]
	 SCS Opposite-Spin Scale   =       1.2000000000000000 [-]
	 SCS Same-Spin Energy      =      -0.0105833156865339 [Eh]
	 SCS Opposite-Spin Energy  =      -0.1191235820449601 [Eh]
	 SCS Correlation Energy    =      -0.1297068977314940 [Eh]
	 SCS Total Energy          =     -76.0453520712854640 [Eh]
	-----------------------------------------------------------

  -Total Gradient:
     Atom            X                  Y                   Z
    ------   -----------------  -----------------  -----------------
       1       -0.013211404818    -0.061960973377     0.000000000000
       2        0.017325986181    -0.052079772796    -0.000000000000
       3       -0.004114581363     0.114040746173    -0.000000000000

*** Psi4 exiting successfully. Buy a developer a beer!
