                               Psi4 1.2a1.dev429

  ==> Input File <==

--------------------------------------------------------------------------
# density-fitted hartree fock energies and gradients with 6-31g
molecule h2o {
0 1
O 0.0000000000 0.0000000000 0.0000000000
H 0.0000000000 0.0000000000 1.2000000000
H 0.0000000000 0.4788282007 -1.3155696691
}

set basis 6-31g

gradient('mp2')
--------------------------------------------------------------------------

    Molecular point group: cs
  Charge       = 0
  Multiplicity = 1
  Basis Set: 6-31G
    Blend: 6-31G
  Basis Set: (6-31G AUX)
    Blend: CC-PVDZ-JKFIT

    Orbital Energies (a.u.)
    -----------------------

    Doubly Occupied:

       1Ap   -20.533312     2Ap    -1.181423     3Ap    -0.567678
       1App   -0.435354     4Ap    -0.426227

  @DF-RHF Final Energy:   -75.80211892353154

   => Energetics <=

    Nuclear Repulsion Energy =              6.7583682818023396
    One-Electron Energy =                -118.8329878739376966
    Two-Electron Energy =                  36.2725006686038398
    Total Energy =                        -75.8021189235315234
  Basis Set: (6-31G AUX)
    Blend: CC-PVDZ-RI
    Molecular point group: cs

    Geometry (in Angstrom), charge = 0, multiplicity = 1:

       Center              X                  Y                   Z               Mass
    ------------   -----------------  -----------------  -----------------  -----------------
           O          0.026793998700    -0.006466982436     0.000000000000    15.994914619560
           H          0.026793998700    -1.206466982436     0.000000000000     1.007825032070
           H         -0.452034202000     1.309102686664     0.000000000000     1.007825032070

  Basis Set: 6-31G
    Blend: 6-31G
  Basis Set: (6-31G AUX)
    Blend: CC-PVDZ-JKFIT
  Basis Set: (6-31G AUX)
    Blend: CC-PVDZ-JKFIT
	 Reference Energy          =     -75.8021189235315376 [Eh]
	 Singles Energy            =      -0.0000000000000000 [Eh]
	 Same-Spin Energy          =      -0.0350540586768012 [Eh]
	 Opposite-Spin Energy      =      -0.1142201731188694 [Eh]
	 Correlation Energy        =      -0.1492742317956706 [Eh]
	 Total Energy              =     -75.9513931553272101 [Eh]

	 ================> DF-SCS-MP2 Energies <==================
	-----------------------------------------------------------
	 SCS Same-Spin Scale       =       0.3333333333333333 [-]
	 SCS Opposite-Spin Scale   =       1.2000000000000000 [-]
	 SCS Same-Spin Energy      =      -0.0116846862256004 [Eh]
	 SCS Opposite-Spin Energy  =      -0.1370642077426433 [Eh]
	 SCS Correlation Energy    =      -0.1487488939682436 [Eh]
	 SCS Total Energy          =     -75.9508678174997840 [Eh]
	-----------------------------------------------------------

  -Total Gradient:
     Atom            X                  Y                   Z
    ------   -----------------  -----------------  -----------------
       1       -0.038587609932    -0.015085615539    -0.000000000000
       2        0.043489636230    -0.107372752808     0.000000000000
       3       -0.004902026298     0.122458368347     0.000000000000

*** Psi4 exiting successfully. Buy a developer a beer!
