                               Psi4 1.3.1 release

  ==> Input File <==

--------------------------------------------------------------------------
# density fitted hartree fock
molecule h2o {
0 1
H 0.0000000000 0.0000000000 1.2000000000
H 0.0000000000 1.0239611235 -0.4018751268
O 0.0000000000 0.0000000000 0.0000000000
}

set basis 6-31g
energy('hf')

--------------------------------------------------------------------------

    Molecular point group: cs

    Geometry (in Angstrom), charge = 0, multiplicity = 1:

       Center              X                  Y                   Z               Mass
    ------------   -----------------  -----------------  -----------------  -----------------
         H            0.057298239694    -1.155338977974     0.000000000000     1.007825032230
         H           -0.966662883806     0.446536148826     0.000000000000     1.007825032230
         O            0.057298239694     0.044661022026     0.000000000000    15.994914619570

  Charge       = 0
  Multiplicity = 1
  Basis Set: 6-31G
    Blend: 6-31G
  Basis Set: (6-31G AUX)
    Blend: CC-PVDZ-JKFIT

    Orbital Energies [Eh]
    ---------------------

    Doubly Occupied:

       1Ap   -20.590089     2Ap    -1.272355     3Ap    -0.624694
       4Ap    -0.518578     1App   -0.491174

  @DF-RHF Final Energy:   -75.92991764581278

   => Energetics <=

    Nuclear Repulsion Energy =              7.6547504858616806
    One-Electron Energy =                -120.1755362970334602
    Two-Electron Energy =                  36.5908681653590122
    Total Energy =                        -75.9299176458127647

  Dipole Moment: [D]
     X:    -2.0714      Y:    -1.4427      Z:     0.0000     Total:     2.5243

*** Psi4 exiting successfully. Buy a developer a beer!
