                               Psi4 1.2a1.dev429

  ==> Input File <==

--------------------------------------------------------------------------
# density-fitted hartree fock energies and gradients with 6-31g
molecule h2o {
0 1
O 0.0000000000 0.0000000000 0.0000000000
H 0.0000000000 0.0000000000 0.9000000000
H 0.0000000000 0.8426488874 -0.7070663707
}

set basis 6-31g

gradient('mp2')
--------------------------------------------------------------------------

    Molecular point group: cs
  Charge       = 0
  Multiplicity = 1
  Basis Set: 6-31G
    Blend: 6-31G
  Basis Set: (6-31G AUX)
    Blend: CC-PVDZ-JKFIT

    Orbital Energies (a.u.)
    -----------------------

    Doubly Occupied:

       1Ap   -20.543740     2Ap    -1.317375     3Ap    -0.718689
       4Ap    -0.506189     1App   -0.484159

  @DF-RHF Final Energy:   -75.95484558474109

   => Energetics <=

    Nuclear Repulsion Energy =              8.8439832643317224
    One-Electron Energy =                -122.4573534033479802
    Two-Electron Energy =                  37.6585245542751608
    Total Energy =                        -75.9548455847410935
  Basis Set: (6-31G AUX)
    Blend: CC-PVDZ-RI
    Molecular point group: cs

    Geometry (in Angstrom), charge = 0, multiplicity = 1:

       Center              X                  Y                   Z               Mass
    ------------   -----------------  -----------------  -----------------  -----------------
           O          0.047152471723     0.010796071337     0.000000000000    15.994914619560
           H          0.047152471723    -0.889203928663     0.000000000000     1.007825032070
           H         -0.795496415677     0.717862442037     0.000000000000     1.007825032070

  Basis Set: 6-31G
    Blend: 6-31G
  Basis Set: (6-31G AUX)
    Blend: CC-PVDZ-JKFIT
  Basis Set: (6-31G AUX)
    Blend: CC-PVDZ-JKFIT
	 Reference Energy          =     -75.9548455847410935 [Eh]
	 Singles Energy            =      -0.0000000000000000 [Eh]
	 Same-Spin Energy          =      -0.0310515870721679 [Eh]
	 Opposite-Spin Energy      =      -0.0998634028266761 [Eh]
	 Correlation Energy        =      -0.1309149898988440 [Eh]
	 Total Energy              =     -76.0857605746399344 [Eh]

	 ================> DF-SCS-MP2 Energies <==================
	-----------------------------------------------------------
	 SCS Same-Spin Scale       =       0.3333333333333333 [-]
	 SCS Opposite-Spin Scale   =       1.2000000000000000 [-]
	 SCS Same-Spin Energy      =      -0.0103505290240560 [Eh]
	 SCS Opposite-Spin Energy  =      -0.1198360833920113 [Eh]
	 SCS Correlation Energy    =      -0.1301866124160672 [Eh]
	 SCS Total Energy          =     -76.0850321971571617 [Eh]
	-----------------------------------------------------------

  -Total Gradient:
     Atom            X                  Y                   Z
    ------   -----------------  -----------------  -----------------
       1        0.025067649592    -0.164007284626     0.000000000000
       2        0.030913348946     0.084016322479    -0.000000000000
       3       -0.055980998537     0.079990962147    -0.000000000000

*** Psi4 exiting successfully. Buy a developer a beer!
