                               Psi4 1.2a1.dev429

  ==> Input File <==

--------------------------------------------------------------------------
# density-fitted hartree fock energies and gradients with 6-31g
molecule h2o {
0 1
O 0.0000000000 0.0000000000 0.0000000000
H 0.0000000000 0.0000000000 1.3000000000
H 0.0000000000 1.1000000000 0.0000000000
}

set basis 6-31g

gradient('mp2')
--------------------------------------------------------------------------

    Molecular point group: cs
  Charge       = 0
  Multiplicity = 1
  Basis Set: 6-31G
    Blend: 6-31G
  Basis Set: (6-31G AUX)
    Blend: CC-PVDZ-JKFIT

    Orbital Energies (a.u.)
    -----------------------

    Doubly Occupied:

       1Ap   -20.616216     2Ap    -1.280322     3Ap    -0.594588
       4Ap    -0.537202     1App   -0.504783

  @DF-RHF Final Energy:   -75.90409523509740

   => Energetics <=

    Nuclear Repulsion Energy =              7.4157802033931945
    One-Electron Energy =                -119.5735309505235193
    Two-Electron Energy =                  36.2536555120329211
    Total Energy =                        -75.9040952350974010
  Basis Set: (6-31G AUX)
    Blend: CC-PVDZ-RI
    Molecular point group: cs

    Geometry (in Angstrom), charge = 0, multiplicity = 1:

       Center              X                  Y                   Z               Mass
    ------------   -----------------  -----------------  -----------------  -----------------
           O          0.061553180300     0.072744667627     0.000000000000    15.994914619560
           H          0.061553180300    -1.227255332373     0.000000000000     1.007825032070
           H         -1.038446819700     0.072744667627     0.000000000000     1.007825032070

  Basis Set: 6-31G
    Blend: 6-31G
  Basis Set: (6-31G AUX)
    Blend: CC-PVDZ-JKFIT
  Basis Set: (6-31G AUX)
    Blend: CC-PVDZ-JKFIT
	 Reference Energy          =     -75.9040952350974010 [Eh]
	 Singles Energy            =      -0.0000000000000000 [Eh]
	 Same-Spin Energy          =      -0.0352739445412851 [Eh]
	 Opposite-Spin Energy      =      -0.1188420190987991 [Eh]
	 Correlation Energy        =      -0.1541159636400842 [Eh]
	 Total Energy              =     -76.0582111987374816 [Eh]

	 ================> DF-SCS-MP2 Energies <==================
	-----------------------------------------------------------
	 SCS Same-Spin Scale       =       0.3333333333333333 [-]
	 SCS Opposite-Spin Scale   =       1.2000000000000000 [-]
	 SCS Same-Spin Energy      =      -0.0117579815137617 [Eh]
	 SCS Opposite-Spin Energy  =      -0.1426104229185589 [Eh]
	 SCS Correlation Energy    =      -0.1543684044323206 [Eh]
	 SCS Total Energy          =     -76.0584636395297196 [Eh]
	-----------------------------------------------------------

  -Total Gradient:
     Atom            X                  Y                   Z
    ------   -----------------  -----------------  -----------------
       1        0.069178511547     0.108593683936     0.000000000000
       2       -0.009630624535    -0.097212035437    -0.000000000000
       3       -0.059547887011    -0.011381648499    -0.000000000000

*** Psi4 exiting successfully. Buy a developer a beer!
