                               Psi4 1.2a1.dev429

  ==> Input File <==

--------------------------------------------------------------------------
# density-fitted hartree fock energies and gradients with 6-31g
molecule h2o {
0 1
O 0.0000000000 0.0000000000 0.0000000000
H 0.0000000000 0.0000000000 0.9000000000
H 0.0000000000 0.4104241720 -1.1276311449
}

set basis 6-31g

gradient('mp2')
--------------------------------------------------------------------------

    Molecular point group: cs
  Charge       = 0
  Multiplicity = 1
  Basis Set: 6-31G
    Blend: 6-31G
  Basis Set: (6-31G AUX)
    Blend: CC-PVDZ-JKFIT

    Orbital Energies (a.u.)
    -----------------------

    Doubly Occupied:

       1Ap   -20.512035     2Ap    -1.271795     3Ap    -0.698273
       4Ap    -0.456737     1App   -0.455656

  @DF-RHF Final Energy:   -75.89818121450880

   => Energetics <=

    Nuclear Repulsion Energy =              8.4874408127451382
    One-Electron Energy =                -121.9822492039360498
    Two-Electron Energy =                  37.5966271766821194
    Total Energy =                        -75.8981812145087957
  Basis Set: (6-31G AUX)
    Blend: CC-PVDZ-RI
    Molecular point group: cs

    Geometry (in Angstrom), charge = 0, multiplicity = 1:

       Center              X                  Y                   Z               Mass
    ------------   -----------------  -----------------  -----------------  -----------------
           O          0.022966284599    -0.012737655367     0.000000000000    15.994914619560
           H          0.022966284599    -0.912737655367     0.000000000000     1.007825032070
           H         -0.387457887401     1.114893489533     0.000000000000     1.007825032070

  Basis Set: 6-31G
    Blend: 6-31G
  Basis Set: (6-31G AUX)
    Blend: CC-PVDZ-JKFIT
  Basis Set: (6-31G AUX)
    Blend: CC-PVDZ-JKFIT
	 Reference Energy          =     -75.8981812145087957 [Eh]
	 Singles Energy            =      -0.0000000000000000 [Eh]
	 Same-Spin Energy          =      -0.0317750191528842 [Eh]
	 Opposite-Spin Energy      =      -0.1002369706346860 [Eh]
	 Correlation Energy        =      -0.1320119897875702 [Eh]
	 Total Energy              =     -76.0301932042963671 [Eh]

	 ================> DF-SCS-MP2 Energies <==================
	-----------------------------------------------------------
	 SCS Same-Spin Scale       =       0.3333333333333333 [-]
	 SCS Opposite-Spin Scale   =       1.2000000000000000 [-]
	 SCS Same-Spin Energy      =      -0.0105916730509614 [Eh]
	 SCS Opposite-Spin Energy  =      -0.1202843647616233 [Eh]
	 SCS Correlation Energy    =      -0.1308760378125846 [Eh]
	 SCS Total Energy          =     -76.0290572523213797 [Eh]
	-----------------------------------------------------------

  -Total Gradient:
     Atom            X                  Y                   Z
    ------   -----------------  -----------------  -----------------
       1       -0.012564450552    -0.208991079870    -0.000000000000
       2        0.034564489776     0.072751614757     0.000000000000
       3       -0.022000039224     0.136239465114     0.000000000000

*** Psi4 exiting successfully. Buy a developer a beer!
