                               Psi4 1.2a1.dev429

  ==> Input File <==

--------------------------------------------------------------------------
# density-fitted hartree fock energies and gradients with 6-31g
molecule h2o {
0 1
O 0.0000000000 0.0000000000 0.0000000000
H 0.0000000000 0.0000000000 0.9000000000
H 0.0000000000 0.7660444431 -0.6427876097
}

set basis 6-31g

gradient('mp2')
--------------------------------------------------------------------------

    Molecular point group: cs
  Charge       = 0
  Multiplicity = 1
  Basis Set: 6-31G
    Blend: 6-31G
  Basis Set: (6-31G AUX)
    Blend: CC-PVDZ-JKFIT

    Orbital Energies (a.u.)
    -----------------------

    Doubly Occupied:

       1Ap   -20.537212     2Ap    -1.334951     3Ap    -0.750146
       4Ap    -0.514556     1App   -0.488240

  @DF-RHF Final Energy:   -75.97207896106860

   => Energetics <=

    Nuclear Repulsion Energy =              9.2444291206656164
    One-Electron Energy =                -123.1828054617397896
    Two-Electron Energy =                  37.9662973800055781
    Total Energy =                        -75.9720789610686040
  Basis Set: (6-31G AUX)
    Blend: CC-PVDZ-RI
    Molecular point group: cs

    Geometry (in Angstrom), charge = 0, multiplicity = 1:

       Center              X                  Y                   Z               Mass
    ------------   -----------------  -----------------  -----------------  -----------------
           O          0.042865883385     0.014392946032     0.000000000000    15.994914619560
           H          0.042865883385    -0.885607053968     0.000000000000     1.007825032070
           H         -0.723178559715     0.657180555732     0.000000000000     1.007825032070

  Basis Set: 6-31G
    Blend: 6-31G
  Basis Set: (6-31G AUX)
    Blend: CC-PVDZ-JKFIT
  Basis Set: (6-31G AUX)
    Blend: CC-PVDZ-JKFIT
	 Reference Energy          =     -75.9720789610686040 [Eh]
	 Singles Energy            =      -0.0000000000000000 [Eh]
	 Same-Spin Energy          =      -0.0302716590152494 [Eh]
	 Opposite-Spin Energy      =      -0.0967353855539968 [Eh]
	 Correlation Energy        =      -0.1270070445692462 [Eh]
	 Total Energy              =     -76.0990860056378438 [Eh]

	 ================> DF-SCS-MP2 Energies <==================
	-----------------------------------------------------------
	 SCS Same-Spin Scale       =       0.3333333333333333 [-]
	 SCS Opposite-Spin Scale   =       1.2000000000000000 [-]
	 SCS Same-Spin Energy      =      -0.0100905530050831 [Eh]
	 SCS Opposite-Spin Energy  =      -0.1160824626647962 [Eh]
	 SCS Correlation Energy    =      -0.1261730156698793 [Eh]
	 SCS Total Energy          =     -76.0982519767384815 [Eh]
	-----------------------------------------------------------

  -Total Gradient:
     Atom            X                  Y                   Z
    ------   -----------------  -----------------  -----------------
       1       -0.011991306024    -0.123480852486     0.000000000000
       2        0.026802100917     0.079564228448    -0.000000000000
       3       -0.014810794893     0.043916624038     0.000000000000

*** Psi4 exiting successfully. Buy a developer a beer!
