                               Psi4 1.2a1.dev429

  ==> Input File <==

--------------------------------------------------------------------------
# density-fitted hartree fock energies and gradients with 6-31g
molecule h20 {
0 1
O 0.0000000000 0.0000000000 0.0000000000
H 0.0000000000 0.0000000000 0.7000000000
H 0.0000000000 0.8863269777 -0.1562833599
}

set basis 6-31g

gradient('hf')
--------------------------------------------------------------------------

    Molecular point group: cs
  Charge       = 0
  Multiplicity = 1
  Basis Set: 6-31G
    Blend: 6-31G
  Basis Set: (6-31G AUX)
    Blend: CC-PVDZ-JKFIT

    Orbital Energies (a.u.)
    -----------------------

    Doubly Occupied:

       1Ap   -20.533526     2Ap    -1.481729     3Ap    -0.795310
       4Ap    -0.591268     1App   -0.516605

  @DF-RHF Final Energy:   -75.84738204980786

   => Energetics <=

    Nuclear Repulsion Energy =             11.1809263255588949
    One-Electron Energy =                -126.2197409316819403
    Two-Electron Energy =                  39.1914325563151706
    Total Energy =                        -75.8473820498078624
    Molecular point group: cs

    Geometry (in Angstrom), charge = 0, multiplicity = 1:

       Center              X                  Y                   Z               Mass
    ------------   -----------------  -----------------  -----------------  -----------------
           O          0.049596585694     0.030424989436     0.000000000000    15.994914619560
           H          0.049596585694    -0.669575010564     0.000000000000     1.007825032070
           H         -0.836730392006     0.186708349336     0.000000000000     1.007825032070

  Basis Set: 6-31G
    Blend: 6-31G
  Basis Set: (6-31G AUX)
    Blend: CC-PVDZ-JKFIT

  -Total Gradient:
     Atom            X                  Y                   Z
    ------   -----------------  -----------------  -----------------
       1       -0.016943833411    -0.691174784896     0.000000000000
       2       -0.048094742870     0.740626924379     0.000000000000
       3        0.065038576281    -0.049452139483     0.000000000000

*** Psi4 exiting successfully. Buy a developer a beer!
