                               Psi4 1.2a1.dev429

  ==> Input File <==

--------------------------------------------------------------------------
# density-fitted hartree fock energies and gradients with 6-31g
molecule h20 {
0 1
O 0.0000000000 0.0000000000 0.0000000000
H 0.0000000000 0.0000000000 0.7000000000
H 0.0000000000 0.6427876097 -0.7660444431
}

set basis 6-31g

gradient('hf')
--------------------------------------------------------------------------

    Molecular point group: cs
  Charge       = 0
  Multiplicity = 1
  Basis Set: 6-31G
    Blend: 6-31G
  Basis Set: (6-31G AUX)
    Blend: CC-PVDZ-JKFIT

    Orbital Energies (a.u.)
    -----------------------

    Doubly Occupied:

       1Ap   -20.514376     2Ap    -1.409133     3Ap    -0.826477
       4Ap    -0.514351     1App   -0.496290

  @DF-RHF Final Energy:   -75.84445190413328

   => Energetics <=

    Nuclear Repulsion Energy =             10.6117340138759815
    One-Electron Energy =                -125.3911156672701708
    Two-Electron Energy =                  38.9349297492609168
    Total Energy =                        -75.8444519041332654
    Molecular point group: cs

    Geometry (in Angstrom), charge = 0, multiplicity = 1:

       Center              X                  Y                   Z               Mass
    ------------   -----------------  -----------------  -----------------  -----------------
           O          0.035968746940    -0.003695677740     0.000000000000    15.994914619560
           H          0.035968746940    -0.703695677740     0.000000000000     1.007825032070
           H         -0.606818862760     0.762348765360     0.000000000000     1.007825032070

  Basis Set: 6-31G
    Blend: 6-31G
  Basis Set: (6-31G AUX)
    Blend: CC-PVDZ-JKFIT

  -Total Gradient:
     Atom            X                  Y                   Z
    ------   -----------------  -----------------  -----------------
       1       -0.001991795066    -0.795729546591     0.000000000000
       2        0.032842519327     0.723197363504     0.000000000000
       3       -0.030850724261     0.072532183087     0.000000000000

*** Psi4 exiting successfully. Buy a developer a beer!
