                               Psi4 1.2a1.dev429

  ==> Input File <==

--------------------------------------------------------------------------
# density-fitted hartree fock energies and gradients with 6-31g
molecule h20 {
0 1
O 0.0000000000 0.0000000000 0.0000000000
O 0.0000000000 0.0000000000 1.3939393939
}

set basis 6-31g

gradient('hf')
--------------------------------------------------------------------------

    Molecular point group: d2h
  Charge       = 0
  Multiplicity = 1
  Basis Set: 6-31G
    Blend: 6-31G
  Basis Set: (6-31G AUX)
    Blend: CC-PVDZ-JKFIT

    Orbital Energies (a.u.)
    -----------------------

    Doubly Occupied:

       1Ag   -20.785657     1B1u  -20.785183     2Ag    -1.544959
       2B1u   -1.166587     1B2u   -0.728207     3Ag    -0.674137
       1B3u   -0.584991     1B3g   -0.541586

  @DF-RHF Final Energy:  -149.41812966479469

   => Energetics <=

    Nuclear Repulsion Energy =             24.2961361863840253
    One-Electron Energy =                -253.8059190412618307
    Two-Electron Energy =                  80.0916531900831217
    Total Energy =                       -149.4181296647946908
    Molecular point group: d2h

    Geometry (in Angstrom), charge = 0, multiplicity = 1:

       Center              X                  Y                   Z               Mass
    ------------   -----------------  -----------------  -----------------  -----------------
           O          0.000000000000     0.000000000000    -0.696969696950    15.994914619560
           O          0.000000000000     0.000000000000     0.696969696950    15.994914619560

  Basis Set: 6-31G
    Blend: 6-31G
  Basis Set: (6-31G AUX)
    Blend: CC-PVDZ-JKFIT

  -Total Gradient:
     Atom            X                  Y                   Z
    ------   -----------------  -----------------  -----------------
       1        0.000000000000     0.000000000000    -0.184455226524
       2        0.000000000000    -0.000000000000     0.184455226524

*** Psi4 exiting successfully. Buy a developer a beer!
