                               Psi4 1.2a1.dev429

  ==> Input File <==

--------------------------------------------------------------------------
# density-fitted hartree fock energies and gradients with 6-31g
molecule h20 {
0 1
O 0.0000000000 0.0000000000 0.0000000000
H 0.0000000000 0.0000000000 0.9000000000
H 0.0000000000 0.8426488874 -0.7070663707
}

set basis 6-31g

gradient('hf')
--------------------------------------------------------------------------

    Molecular point group: cs
  Charge       = 0
  Multiplicity = 1
  Basis Set: 6-31G
    Blend: 6-31G
  Basis Set: (6-31G AUX)
    Blend: CC-PVDZ-JKFIT

    Orbital Energies (a.u.)
    -----------------------

    Doubly Occupied:

       1Ap   -20.543740     2Ap    -1.317375     3Ap    -0.718689
       4Ap    -0.506189     1App   -0.484159

  @DF-RHF Final Energy:   -75.95484558474114

   => Energetics <=

    Nuclear Repulsion Energy =              8.8439832643317224
    One-Electron Energy =                -122.4573534212429280
    Two-Electron Energy =                  37.6585245721700659
    Total Energy =                        -75.9548455847411361
    Molecular point group: cs

    Geometry (in Angstrom), charge = 0, multiplicity = 1:

       Center              X                  Y                   Z               Mass
    ------------   -----------------  -----------------  -----------------  -----------------
           O          0.047152471723     0.010796071337     0.000000000000    15.994914619560
           H          0.047152471723    -0.889203928663     0.000000000000     1.007825032070
           H         -0.795496415677     0.717862442037     0.000000000000     1.007825032070

  Basis Set: 6-31G
    Blend: 6-31G
  Basis Set: (6-31G AUX)
    Blend: CC-PVDZ-JKFIT

  -Total Gradient:
     Atom            X                  Y                   Z
    ------   -----------------  -----------------  -----------------
       1        0.043404554427    -0.153113861989     0.000000000000
       2        0.029221571990     0.060962898729     0.000000000000
       3       -0.072626126418     0.092150963261     0.000000000000

*** Psi4 exiting successfully. Buy a developer a beer!
