                               Psi4 1.2a1.dev429

  ==> Input File <==

--------------------------------------------------------------------------
# density-fitted hartree fock energies and gradients with 6-31g
molecule h20 {
0 1
O 0.0000000000 0.0000000000 0.0000000000
H 0.0000000000 0.0000000000 1.4000000000
H 0.0000000000 0.1389185421 -0.7878462024
}

set basis 6-31g

gradient('hf')
--------------------------------------------------------------------------

    Molecular point group: cs
  Charge       = 0
  Multiplicity = 1
  Basis Set: 6-31G
    Blend: 6-31G
  Basis Set: (6-31G AUX)
    Blend: CC-PVDZ-JKFIT

    Orbital Energies (a.u.)
    -----------------------

    Doubly Occupied:

       1Ap   -20.488018     2Ap    -1.282059     3Ap    -0.664835
       1App   -0.438634     4Ap    -0.437105

  @DF-RHF Final Energy:   -75.79890610300997

   => Energetics <=

    Nuclear Repulsion Energy =              8.5570270455670325
    One-Electron Energy =                -122.0905639998997003
    Two-Electron Energy =                  37.7346308513226916
    Total Energy =                        -75.7989061030099833
    Molecular point group: cs

    Geometry (in Angstrom), charge = 0, multiplicity = 1:

       Center              X                  Y                   Z               Mass
    ------------   -----------------  -----------------  -----------------  -----------------
           O          0.007773525517     0.034254557341     0.000000000000    15.994914619560
           H          0.007773525517    -1.365745442659     0.000000000000     1.007825032070
           H         -0.131145016583     0.822100759741     0.000000000000     1.007825032070

  Basis Set: 6-31G
    Blend: 6-31G
  Basis Set: (6-31G AUX)
    Blend: CC-PVDZ-JKFIT

  -Total Gradient:
     Atom            X                  Y                   Z
    ------   -----------------  -----------------  -----------------
       1       -0.087537004473     0.445033384088     0.000000000000
       2        0.013748129256    -0.165107435358     0.000000000000
       3        0.073788875217    -0.279925948730     0.000000000000

*** Psi4 exiting successfully. Buy a developer a beer!
