                               Psi4 1.2a1.dev429

  ==> Input File <==

--------------------------------------------------------------------------
# density-fitted hartree fock energies and gradients with 6-31g
molecule h2o {
0 1
O 0.0000000000 0.0000000000 0.0000000000
H 0.0000000000 0.0000000000 1.3000000000
H 0.0000000000 1.3155696691 -0.4788282007
}

set basis 6-31g

gradient('mp2')
--------------------------------------------------------------------------

    Molecular point group: cs
  Charge       = 0
  Multiplicity = 1
  Basis Set: 6-31G
    Blend: 6-31G
  Basis Set: (6-31G AUX)
    Blend: CC-PVDZ-JKFIT

    Orbital Energies (a.u.)
    -----------------------

    Doubly Occupied:

       1Ap   -20.623137     2Ap    -1.230238     3Ap    -0.551533
       1App   -0.493758     4Ap    -0.491591

  @DF-RHF Final Energy:   -75.83624549680000

   => Energetics <=

    Nuclear Repulsion Energy =              6.5195259902635474
    One-Electron Energy =                -117.9310280049234763
    Two-Electron Energy =                  35.5752565178599269
    Total Energy =                        -75.8362454968000037
  Basis Set: (6-31G AUX)
    Blend: CC-PVDZ-RI
    Molecular point group: cs

    Geometry (in Angstrom), charge = 0, multiplicity = 1:

       Center              X                  Y                   Z               Mass
    ------------   -----------------  -----------------  -----------------  -----------------
           O          0.073615906399     0.045950668927     0.000000000000    15.994914619560
           H          0.073615906399    -1.254049331073     0.000000000000     1.007825032070
           H         -1.241953762701     0.524778869627     0.000000000000     1.007825032070

  Basis Set: 6-31G
    Blend: 6-31G
  Basis Set: (6-31G AUX)
    Blend: CC-PVDZ-JKFIT
  Basis Set: (6-31G AUX)
    Blend: CC-PVDZ-JKFIT
	 Reference Energy          =     -75.8362454968000037 [Eh]
	 Singles Energy            =      -0.0000000000000000 [Eh]
	 Same-Spin Energy          =      -0.0373896397716941 [Eh]
	 Opposite-Spin Energy      =      -0.1290535504278658 [Eh]
	 Correlation Energy        =      -0.1664431901995598 [Eh]
	 Total Energy              =     -76.0026886869995622 [Eh]

	 ================> DF-SCS-MP2 Energies <==================
	-----------------------------------------------------------
	 SCS Same-Spin Scale       =       0.3333333333333333 [-]
	 SCS Opposite-Spin Scale   =       1.2000000000000000 [-]
	 SCS Same-Spin Energy      =      -0.0124632132572314 [Eh]
	 SCS Opposite-Spin Energy  =      -0.1548642605134389 [Eh]
	 SCS Correlation Energy    =      -0.1673274737706703 [Eh]
	 SCS Total Energy          =     -76.0035729705706729 [Eh]
	-----------------------------------------------------------

  -Total Gradient:
     Atom            X                  Y                   Z
    ------   -----------------  -----------------  -----------------
       1        0.074403534473     0.050872835237    -0.000000000000
       2        0.016202318898    -0.099861232580     0.000000000000
       3       -0.090605853370     0.048988397343     0.000000000000

*** Psi4 exiting successfully. Buy a developer a beer!
