                               Psi4 1.2a1.dev429

  ==> Input File <==

--------------------------------------------------------------------------
# density-fitted hartree fock energies and gradients with 6-31g
molecule h20 {
0 1
O 0.0000000000 0.0000000000 0.0000000000
O 0.0000000000 0.0000000000 1.0545454545
}

set basis 6-31g

gradient('hf')
--------------------------------------------------------------------------

    Molecular point group: d2h
  Charge       = 0
  Multiplicity = 1
  Basis Set: 6-31G
    Blend: 6-31G
  Basis Set: (6-31G AUX)
    Blend: CC-PVDZ-JKFIT

    Orbital Energies (a.u.)
    -----------------------

    Doubly Occupied:

       1Ag   -20.731660     1B1u  -20.729843     2Ag    -1.869317
       2B1u   -1.045637     1B3u   -0.851026     3Ag    -0.772222
       1B2u   -0.740591     1B2g   -0.418125

  @DF-RHF Final Energy:  -149.41518767179215

   => Energetics <=

    Nuclear Repulsion Energy =             32.1155823158118707
    One-Electron Energy =                -268.7446977431630444
    Two-Electron Energy =                  87.2139277555590269
    Total Energy =                       -149.4151876717921255
    Molecular point group: d2h

    Geometry (in Angstrom), charge = 0, multiplicity = 1:

       Center              X                  Y                   Z               Mass
    ------------   -----------------  -----------------  -----------------  -----------------
           O          0.000000000000     0.000000000000    -0.527272727250    15.994914619560
           O          0.000000000000     0.000000000000     0.527272727250    15.994914619560

  Basis Set: 6-31G
    Blend: 6-31G
  Basis Set: (6-31G AUX)
    Blend: CC-PVDZ-JKFIT

  -Total Gradient:
     Atom            X                  Y                   Z
    ------   -----------------  -----------------  -----------------
       1        0.000000000000    -0.000000000000     0.421093454874
       2       -0.000000000000     0.000000000000    -0.421093454874

*** Psi4 exiting successfully. Buy a developer a beer!
