                               Psi4 1.2a1.dev429

  ==> Input File <==

--------------------------------------------------------------------------
# density-fitted hartree fock energies and gradients with 6-31g
molecule o2 {
0 3
O 0.0000000000 0.0000000000 0.0000000000
O 0.0000000000 0.0000000000 1.0545454545
}

set basis 6-31g
set reference rohf

gradient('scf')
--------------------------------------------------------------------------

    Molecular point group: d2h
  Charge       = 0
  Multiplicity = 3
  Basis Set: 6-31G
    Blend: 6-31G
  Basis Set: (6-31G AUX)
    Blend: CC-PVDZ-JKFIT

    Orbital Energies (a.u.)
    -----------------------

    Doubly Occupied:

       1Ag   -20.721023     1B1u  -20.719221     2Ag    -1.862965
       2B1u   -1.041113     1B2u   -0.790760     1B3u   -0.790760
       3Ag    -0.767366

    Singly Occupied:

       1B3g   -0.155495     1B2g   -0.155495

  @DF-ROHF Final Energy:  -149.48384393342840

   => Energetics <=

    Nuclear Repulsion Energy =             32.1155823158118707
    One-Electron Energy =                -268.8425174391766177
    Two-Electron Energy =                  87.2430911899363366
    Total Energy =                       -149.4838439334284033
    Molecular point group: d2h

    Geometry (in Angstrom), charge = 0, multiplicity = 3:

       Center              X                  Y                   Z               Mass
    ------------   -----------------  -----------------  -----------------  -----------------
           O          0.000000000000     0.000000000000    -0.527272727250    15.994914619560
           O          0.000000000000     0.000000000000     0.527272727250    15.994914619560

  Basis Set: 6-31G
    Blend: 6-31G
  Basis Set: (6-31G AUX)
    Blend: CC-PVDZ-JKFIT

  -Total Gradient:
     Atom            X                  Y                   Z
    ------   -----------------  -----------------  -----------------
       1        0.000000000000     0.000000000000     0.414870285790
       2        0.000000000000    -0.000000000000    -0.414870285790

*** Psi4 exiting successfully. Buy a developer a beer!
