                               Psi4 1.2a1.dev429

  ==> Input File <==

--------------------------------------------------------------------------
# density-fitted hartree fock energies and gradients with 6-31g
molecule o2 {
0 3
O 0.0000000000 0.0000000000 0.0000000000
O 0.0000000000 0.0000000000 1.3142857143
}

set basis 6-31g
set reference rohf

energy('scf')
--------------------------------------------------------------------------

    Molecular point group: d2h

    Geometry (in Angstrom), charge = 0, multiplicity = 3:

       Center              X                  Y                   Z               Mass
    ------------   -----------------  -----------------  -----------------  -----------------
           O          0.000000000000     0.000000000000    -0.657142857150    15.994914619560
           O          0.000000000000     0.000000000000     0.657142857150    15.994914619560

  Charge       = 0
  Multiplicity = 3
  Basis Set: 6-31G
    Blend: 6-31G
  Basis Set: (6-31G AUX)
    Blend: CC-PVDZ-JKFIT

    Orbital Energies (a.u.)
    -----------------------

    Doubly Occupied:

       1Ag   -20.766355     1B1u  -20.765779     2Ag    -1.597136
       2B1u   -1.138582     3Ag    -0.692961     1B3u   -0.676594
       1B2u   -0.676594

    Singly Occupied:

       1B2g   -0.267233     1B3g   -0.267233

  @DF-ROHF Final Energy:  -149.50784570460408

   => Energetics <=

    Nuclear Repulsion Energy =             25.7686292875807723
    One-Electron Energy =                -256.7543084777213380
    Two-Electron Energy =                  81.4778334855364932
    Total Energy =                       -149.5078457046040512
*** Psi4 exiting successfully. Buy a developer a beer!
