                               Psi4 1.3.1 release

  ==> Input File <==

--------------------------------------------------------------------------
# density fitted MP2
molecule h2o {
0 1
H 0.0000000000 0.0000000000 1.0250000000
H 0.0000000000 0.9055554621 -0.2426428548
O 0.0000000000 0.0000000000 0.0000000000
}

set basis 6-31g
energy('mp2')

--------------------------------------------------------------------------

    Molecular point group: cs

    Geometry (in Angstrom), charge = 0, multiplicity = 1:

       Center              X                  Y                   Z               Mass
    ------------   -----------------  -----------------  -----------------  -----------------
         H            0.050672562398    -0.981221299614     0.000000000000     1.007825032230
         H           -0.854882899702     0.286421555186     0.000000000000     1.007825032230
         O            0.050672562398     0.043778700386     0.000000000000    15.994914619570

  Charge       = 0
  Multiplicity = 1
  Basis Set: 6-31G
    Blend: 6-31G
  Basis Set: (6-31G AUX)
    Blend: CC-PVDZ-JKFIT

    Orbital Energies [Eh]
    ---------------------

    Doubly Occupied:

       1Ap   -20.564602     2Ap    -1.345321     3Ap    -0.698243
       4Ap    -0.555596     1App   -0.500038

  @DF-RHF Final Energy:   -75.97943563912946

   => Energetics <=

    Nuclear Repulsion Energy =              8.9854897694228306
    One-Electron Energy =                -122.6022483903003035
    Two-Electron Energy =                  37.6373229817480137
    Total Energy =                        -75.9794356391294627

  Dipole Moment: [D]
     X:    -2.0637      Y:    -1.6295      Z:     0.0000     Total:     2.6295

  Basis Set: (6-31G AUX)
    Blend: CC-PVDZ-RI
	 Reference Energy          =     -75.9794356391294627 [Eh]
	 Singles Energy            =      -0.0000000000000000 [Eh]
	 Same-Spin Energy          =      -0.0306089891832357 [Eh]
	 Opposite-Spin Energy      =      -0.1002642880363420 [Eh]
	 Correlation Energy        =      -0.1308732772195777 [Eh]
	 Total Energy              =     -76.1103089163490409 [Eh]

	 ================> DF-SCS-MP2 Energies <==================
	-----------------------------------------------------------
	 SCS Same-Spin Scale       =       0.3333333333333333 [-]
	 SCS Opposite-Spin Scale   =       1.2000000000000000 [-]
	 SCS Same-Spin Energy      =      -0.0102029963944119 [Eh]
	 SCS Opposite-Spin Energy  =      -0.1203171456436104 [Eh]
	 SCS Correlation Energy    =      -0.1305201420380223 [Eh]
	 SCS Total Energy          =     -76.1099557811674856 [Eh]
	-----------------------------------------------------------

*** Psi4 exiting successfully. Buy a developer a beer!
