                               Psi4 1.2a1.dev429

  ==> Input File <==

--------------------------------------------------------------------------
# density-fitted hartree fock energies and gradients with 6-31g
molecule h2o {
0 1
O 0.0000000000 0.0000000000 0.0000000000
H 0.0000000000 0.0000000000 1.0000000000
H 0.0000000000 1.4000000000 0.0000000000
}

set basis 6-31g

gradient('mp2')
--------------------------------------------------------------------------

    Molecular point group: cs
  Charge       = 0
  Multiplicity = 1
  Basis Set: 6-31G
    Blend: 6-31G
  Basis Set: (6-31G AUX)
    Blend: CC-PVDZ-JKFIT

    Orbital Energies (a.u.)
    -----------------------

    Doubly Occupied:

       1Ap   -20.612342     2Ap    -1.297014     3Ap    -0.617595
       4Ap    -0.519429     1App   -0.506432

  @DF-RHF Final Energy:   -75.89287482775046

   => Energetics <=

    Nuclear Repulsion Energy =              7.5648654369695931
    One-Electron Energy =                -119.8098569880226592
    Two-Electron Energy =                  36.3521167233026006
    Total Energy =                        -75.8928748277504610
  Basis Set: (6-31G AUX)
    Blend: CC-PVDZ-RI
    Molecular point group: cs

    Geometry (in Angstrom), charge = 0, multiplicity = 1:

       Center              X                  Y                   Z               Mass
    ------------   -----------------  -----------------  -----------------  -----------------
           O          0.078340411291     0.055957436636     0.000000000000    15.994914619560
           H          0.078340411291    -0.944042563364     0.000000000000     1.007825032070
           H         -1.321659588709     0.055957436636     0.000000000000     1.007825032070

  Basis Set: 6-31G
    Blend: 6-31G
  Basis Set: (6-31G AUX)
    Blend: CC-PVDZ-JKFIT
  Basis Set: (6-31G AUX)
    Blend: CC-PVDZ-JKFIT
	 Reference Energy          =     -75.8928748277504610 [Eh]
	 Singles Energy            =      -0.0000000000000000 [Eh]
	 Same-Spin Energy          =      -0.0346337075149117 [Eh]
	 Opposite-Spin Energy      =      -0.1184946194812642 [Eh]
	 Correlation Energy        =      -0.1531283269961760 [Eh]
	 Total Energy              =     -76.0460031547466428 [Eh]

	 ================> DF-SCS-MP2 Energies <==================
	-----------------------------------------------------------
	 SCS Same-Spin Scale       =       0.3333333333333333 [-]
	 SCS Opposite-Spin Scale   =       1.2000000000000000 [-]
	 SCS Same-Spin Energy      =      -0.0115445691716372 [Eh]
	 SCS Opposite-Spin Energy  =      -0.1421935433775171 [Eh]
	 SCS Correlation Energy    =      -0.1537381125491543 [Eh]
	 SCS Total Energy          =     -76.0466129402996103 [Eh]
	-----------------------------------------------------------

  -Total Gradient:
     Atom            X                  Y                   Z
    ------   -----------------  -----------------  -----------------
       1        0.111347092779     0.010607264308     0.000000000000
       2       -0.011673659598    -0.002268935221     0.000000000000
       3       -0.099673433181    -0.008338329087    -0.000000000000

*** Psi4 exiting successfully. Buy a developer a beer!
