                               Psi4 1.2a1.dev429

  ==> Input File <==

--------------------------------------------------------------------------
# density-fitted hartree fock energies and gradients with 6-31g
molecule h2o {
0 1
O 0.0000000000 0.0000000000 0.0000000000
H 0.0000000000 0.0000000000 1.3000000000
H 0.0000000000 1.3000000000 0.0000000000
}

set basis 6-31g

gradient('mp2')
--------------------------------------------------------------------------

    Molecular point group: c2v
  Charge       = 0
  Multiplicity = 1
  Basis Set: 6-31G
    Blend: 6-31G
  Basis Set: (6-31G AUX)
    Blend: CC-PVDZ-JKFIT

    Orbital Energies (a.u.)
    -----------------------

    Doubly Occupied:

       1A1   -20.633026     2A1    -1.252009     1B2    -0.550546
       3A1    -0.530014     1B1    -0.505057

  @DF-RHF Final Energy:   -75.86177189384230

   => Energetics <=

    Nuclear Repulsion Energy =              6.8007847154487369
    One-Electron Energy =                -118.3838059817640982
    Two-Electron Energy =                  35.7212493724730535
    Total Energy =                        -75.8617718938423025
  Basis Set: (6-31G AUX)
    Blend: CC-PVDZ-RI
    Molecular point group: c2v

    Geometry (in Angstrom), charge = 0, multiplicity = 1:

       Center              X                  Y                   Z               Mass
    ------------   -----------------  -----------------  -----------------  -----------------
           O         -0.000000000000     0.000000000000    -0.102876495548    15.994914619560
           H          0.000000000000    -0.919238815543     0.816362319994     1.007825032070
           H         -0.000000000000     0.919238815543     0.816362319994     1.007825032070

  Basis Set: 6-31G
    Blend: 6-31G
  Basis Set: (6-31G AUX)
    Blend: CC-PVDZ-JKFIT
  Basis Set: (6-31G AUX)
    Blend: CC-PVDZ-JKFIT
	 Reference Energy          =     -75.8617718938423025 [Eh]
	 Singles Energy            =      -0.0000000000000000 [Eh]
	 Same-Spin Energy          =      -0.0375575026285832 [Eh]
	 Opposite-Spin Energy      =      -0.1276321077393854 [Eh]
	 Correlation Energy        =      -0.1651896103679686 [Eh]
	 Total Energy              =     -76.0269615042102771 [Eh]

	 ================> DF-SCS-MP2 Energies <==================
	-----------------------------------------------------------
	 SCS Same-Spin Scale       =       0.3333333333333333 [-]
	 SCS Opposite-Spin Scale   =       1.2000000000000000 [-]
	 SCS Same-Spin Energy      =      -0.0125191675428611 [Eh]
	 SCS Opposite-Spin Energy  =      -0.1531585292872625 [Eh]
	 SCS Correlation Energy    =      -0.1656776968301236 [Eh]
	 SCS Total Energy          =     -76.0274495906724326 [Eh]
	-----------------------------------------------------------

  -Total Gradient:
     Atom            X                  Y                   Z
    ------   -----------------  -----------------  -----------------
       1        0.000000000000    -0.000000000003    -0.140948848158
       2       -0.000000000000    -0.063910042904     0.070474424078
       3       -0.000000000000     0.063910042907     0.070474424080

*** Psi4 exiting successfully. Buy a developer a beer!
