                               Psi4 1.2a1.dev429

  ==> Input File <==

--------------------------------------------------------------------------
# density-fitted hartree fock energies and gradients with 6-31g
molecule h2o {
0 1
O 0.0000000000 0.0000000000 0.0000000000
H 0.0000000000 0.0000000000 1.4000000000
H 0.0000000000 0.8356238926 -0.9958577761
}

set basis 6-31g

gradient('mp2')
--------------------------------------------------------------------------

    Molecular point group: cs
  Charge       = 0
  Multiplicity = 1
  Basis Set: 6-31G
    Blend: 6-31G
  Basis Set: (6-31G AUX)
    Blend: CC-PVDZ-JKFIT

    Orbital Energies (a.u.)
    -----------------------

    Doubly Occupied:

       1Ap   -20.582537     2Ap    -1.200628     3Ap    -0.556088
       1App   -0.465157     4Ap    -0.449125

  @DF-RHF Final Energy:   -75.80616393644874

   => Energetics <=

    Nuclear Repulsion Energy =              6.4888958053144448
    One-Electron Energy =                -118.0830490037020297
    Two-Electron Energy =                  35.7879892619388400
    Total Energy =                        -75.8061639364487405
  Basis Set: (6-31G AUX)
    Blend: CC-PVDZ-RI
    Molecular point group: cs

    Geometry (in Angstrom), charge = 0, multiplicity = 1:

       Center              X                  Y                   Z               Mass
    ------------   -----------------  -----------------  -----------------  -----------------
           O          0.046759371022     0.022614762886     0.000000000000    15.994914619560
           H          0.046759371022    -1.377385237114     0.000000000000     1.007825032070
           H         -0.788864521578     1.018472538986     0.000000000000     1.007825032070

  Basis Set: 6-31G
    Blend: 6-31G
  Basis Set: (6-31G AUX)
    Blend: CC-PVDZ-JKFIT
  Basis Set: (6-31G AUX)
    Blend: CC-PVDZ-JKFIT
	 Reference Energy          =     -75.8061639364487405 [Eh]
	 Singles Energy            =      -0.0000000000000000 [Eh]
	 Same-Spin Energy          =      -0.0364858620999938 [Eh]
	 Opposite-Spin Energy      =      -0.1241601815160806 [Eh]
	 Correlation Energy        =      -0.1606460436160745 [Eh]
	 Total Energy              =     -75.9668099800648093 [Eh]

	 ================> DF-SCS-MP2 Energies <==================
	-----------------------------------------------------------
	 SCS Same-Spin Scale       =       0.3333333333333333 [-]
	 SCS Opposite-Spin Scale   =       1.2000000000000000 [-]
	 SCS Same-Spin Energy      =      -0.0121619540333313 [Eh]
	 SCS Opposite-Spin Energy  =      -0.1489922178192967 [Eh]
	 SCS Correlation Energy    =      -0.1611541718526280 [Eh]
	 SCS Total Energy          =     -75.9673181083013702 [Eh]
	-----------------------------------------------------------

  -Total Gradient:
     Atom            X                  Y                   Z
    ------   -----------------  -----------------  -----------------
       1        0.001694842276    -0.000418930691    -0.000000000000
       2        0.035572331980    -0.103592062063     0.000000000000
       3       -0.037267174256     0.104010992754     0.000000000000

*** Psi4 exiting successfully. Buy a developer a beer!
