                               Psi4 1.3.1 release

  ==> Input File <==

--------------------------------------------------------------------------
# density fitted hartree fock
molecule h2o {
0 1
H 0.0000000000 0.0000000000 1.2000000000
H 0.0000000000 1.1086554390 -0.4592201188
O 0.0000000000 0.0000000000 0.0000000000
}

set basis 6-31g
energy('hf')

--------------------------------------------------------------------------

    Molecular point group: c2v

    Geometry (in Angstrom), charge = 0, multiplicity = 1:

       Center              X                  Y                   Z               Mass
    ------------   -----------------  -----------------  -----------------  -----------------
         H            0.000000000000    -0.997763534743     0.592072392951     1.007825032230
         H           -0.000000000000     0.997763534743     0.592072392951     1.007825032230
         O           -0.000000000000     0.000000000000    -0.074611886678    15.994914619570

  Charge       = 0
  Multiplicity = 1
  Basis Set: 6-31G
    Blend: 6-31G
  Basis Set: (6-31G AUX)
    Blend: CC-PVDZ-JKFIT

    Orbital Energies [Eh]
    ---------------------

    Doubly Occupied:

       1A1   -20.597859     2A1    -1.256245     1B2    -0.603489
       3A1    -0.510622     1B1    -0.490046

  @DF-RHF Final Energy:   -75.90808002416716

   => Energetics <=

    Nuclear Repulsion Energy =              7.3208778172839990
    One-Electron Energy =                -119.5413949462700742
    Two-Electron Energy =                  36.3124371048189118
    Total Energy =                        -75.9080800241671625

  Dipole Moment: [D]
     X:     0.0000      Y:     0.0000      Z:     2.4903     Total:     2.4903

*** Psi4 exiting successfully. Buy a developer a beer!
