                               Psi4 1.2a1.dev429

  ==> Input File <==

--------------------------------------------------------------------------
# density-fitted hartree fock energies and gradients with 6-31g
molecule h2o {
0 1
O 0.0000000000 0.0000000000 0.0000000000
H 0.0000000000 0.0000000000 1.1000000000
H 0.0000000000 1.5000000000 0.0000000000
}

set basis 6-31g

gradient('mp2')
--------------------------------------------------------------------------

    Molecular point group: cs
  Charge       = 0
  Multiplicity = 1
  Basis Set: 6-31G
    Blend: 6-31G
  Basis Set: (6-31G AUX)
    Blend: CC-PVDZ-JKFIT

    Orbital Energies (a.u.)
    -----------------------

    Doubly Occupied:

       1Ap   -20.627984     2Ap    -1.268002     3Ap    -0.590333
       1App   -0.506644     4Ap    -0.498223

  @DF-RHF Final Energy:   -75.85709626362518

   => Energetics <=

    Nuclear Repulsion Energy =              6.9553273926314834
    One-Electron Energy =                -118.6424769367418719
    Two-Electron Energy =                  35.8300532804851954
    Total Energy =                        -75.8570962636251807
  Basis Set: (6-31G AUX)
    Blend: CC-PVDZ-RI
    Molecular point group: cs

    Geometry (in Angstrom), charge = 0, multiplicity = 1:

       Center              X                  Y                   Z               Mass
    ------------   -----------------  -----------------  -----------------  -----------------
           O          0.083936154954     0.061553180300     0.000000000000    15.994914619560
           H          0.083936154954    -1.038446819700     0.000000000000     1.007825032070
           H         -1.416063845046     0.061553180300     0.000000000000     1.007825032070

  Basis Set: 6-31G
    Blend: 6-31G
  Basis Set: (6-31G AUX)
    Blend: CC-PVDZ-JKFIT
  Basis Set: (6-31G AUX)
    Blend: CC-PVDZ-JKFIT
	 Reference Energy          =     -75.8570962636251807 [Eh]
	 Singles Energy            =      -0.0000000000000000 [Eh]
	 Same-Spin Energy          =      -0.0367534014801796 [Eh]
	 Opposite-Spin Energy      =      -0.1273747914795109 [Eh]
	 Correlation Energy        =      -0.1641281929596906 [Eh]
	 Total Energy              =     -76.0212244565848749 [Eh]

	 ================> DF-SCS-MP2 Energies <==================
	-----------------------------------------------------------
	 SCS Same-Spin Scale       =       0.3333333333333333 [-]
	 SCS Opposite-Spin Scale   =       1.2000000000000000 [-]
	 SCS Same-Spin Energy      =      -0.0122511338267265 [Eh]
	 SCS Opposite-Spin Energy  =      -0.1528497497754131 [Eh]
	 SCS Correlation Energy    =      -0.1651008836021396 [Eh]
	 SCS Total Energy          =     -76.0221971472273168 [Eh]
	-----------------------------------------------------------

  -Total Gradient:
     Atom            X                  Y                   Z
    ------   -----------------  -----------------  -----------------
       1        0.100524333542     0.061090311709    -0.000000000000
       2       -0.005056650366    -0.057382103943     0.000000000000
       3       -0.095467683176    -0.003708207766     0.000000000000

*** Psi4 exiting successfully. Buy a developer a beer!
