                               Psi4 1.2a1.dev429

  ==> Input File <==

--------------------------------------------------------------------------
# density-fitted hartree fock energies and gradients with 6-31g
molecule h2o {
0 1
O 0.0000000000 0.0000000000 0.0000000000
H 0.0000000000 0.0000000000 0.9000000000
H 0.0000000000 0.6427876097 -0.7660444431
}

set basis 6-31g

gradient('mp2')
--------------------------------------------------------------------------

    Molecular point group: cs
  Charge       = 0
  Multiplicity = 1
  Basis Set: 6-31G
    Blend: 6-31G
  Basis Set: (6-31G AUX)
    Blend: CC-PVDZ-JKFIT

    Orbital Energies (a.u.)
    -----------------------

    Doubly Occupied:

       1Ap   -20.527799     2Ap    -1.324418     3Ap    -0.758882
       4Ap    -0.498724     1App   -0.482308

  @DF-RHF Final Energy:   -75.96344061930266

   => Energetics <=

    Nuclear Repulsion Energy =              9.2335494602544568
    One-Electron Energy =                -123.2097171237662110
    Two-Electron Energy =                  38.0127270442091145
    Total Energy =                        -75.9634406193026450
  Basis Set: (6-31G AUX)
    Blend: CC-PVDZ-RI
    Molecular point group: cs

    Geometry (in Angstrom), charge = 0, multiplicity = 1:

       Center              X                  Y                   Z               Mass
    ------------   -----------------  -----------------  -----------------  -----------------
           O          0.035968746940     0.007495809587     0.000000000000    15.994914619560
           H          0.035968746940    -0.892504190413     0.000000000000     1.007825032070
           H         -0.606818862760     0.773540252687     0.000000000000     1.007825032070

  Basis Set: 6-31G
    Blend: 6-31G
  Basis Set: (6-31G AUX)
    Blend: CC-PVDZ-JKFIT
  Basis Set: (6-31G AUX)
    Blend: CC-PVDZ-JKFIT
	 Reference Energy          =     -75.9634406193026592 [Eh]
	 Singles Energy            =      -0.0000000000000000 [Eh]
	 Same-Spin Energy          =      -0.0303585057925199 [Eh]
	 Opposite-Spin Energy      =      -0.0962320524710340 [Eh]
	 Correlation Energy        =      -0.1265905582635538 [Eh]
	 Total Energy              =     -76.0900311775662175 [Eh]

	 ================> DF-SCS-MP2 Energies <==================
	-----------------------------------------------------------
	 SCS Same-Spin Scale       =       0.3333333333333333 [-]
	 SCS Opposite-Spin Scale   =       1.2000000000000000 [-]
	 SCS Same-Spin Energy      =      -0.0101195019308399 [Eh]
	 SCS Opposite-Spin Energy  =      -0.1154784629652408 [Eh]
	 SCS Correlation Energy    =      -0.1255979648960807 [Eh]
	 SCS Total Energy          =     -76.0890385841987467 [Eh]
	-----------------------------------------------------------

  -Total Gradient:
     Atom            X                  Y                   Z
    ------   -----------------  -----------------  -----------------
       1       -0.026535397828    -0.127969986714    -0.000000000000
       2        0.033233542785     0.073455455838     0.000000000000
       3       -0.006698144956     0.054514530876     0.000000000000

*** Psi4 exiting successfully. Buy a developer a beer!
