                               Psi4 1.2a1.dev429

  ==> Input File <==

--------------------------------------------------------------------------
# density-fitted hartree fock energies and gradients with 6-31g
molecule h2o {
0 1
O 0.0000000000 0.0000000000 0.0000000000
H 0.0000000000 0.0000000000 1.3000000000
H 0.0000000000 1.0832885283 -0.1910129954
}

set basis 6-31g

gradient('mp2')
--------------------------------------------------------------------------

    Molecular point group: cs
  Charge       = 0
  Multiplicity = 1
  Basis Set: 6-31G
    Blend: 6-31G
  Basis Set: (6-31G AUX)
    Blend: CC-PVDZ-JKFIT

    Orbital Energies (a.u.)
    -----------------------

    Doubly Occupied:

       1Ap   -20.608400     2Ap    -1.272304     3Ap    -0.600859
       4Ap    -0.524915     1App   -0.498975

  @DF-RHF Final Energy:   -75.90756530414042

   => Energetics <=

    Nuclear Repulsion Energy =              7.3921654550966061
    One-Electron Energy =                -119.5885549460912074
    Two-Electron Energy =                  36.2888241868541925
    Total Energy =                        -75.9075653041404053
  Basis Set: (6-31G AUX)
    Blend: CC-PVDZ-RI
    Molecular point group: cs

    Geometry (in Angstrom), charge = 0, multiplicity = 1:

       Center              X                  Y                   Z               Mass
    ------------   -----------------  -----------------  -----------------  -----------------
           O          0.060618049181     0.062056070040     0.000000000000    15.994914619560
           H          0.060618049181    -1.237943929960     0.000000000000     1.007825032070
           H         -1.022670479119     0.253069065440     0.000000000000     1.007825032070

  Basis Set: 6-31G
    Blend: 6-31G
  Basis Set: (6-31G AUX)
    Blend: CC-PVDZ-JKFIT
  Basis Set: (6-31G AUX)
    Blend: CC-PVDZ-JKFIT
	 Reference Energy          =     -75.9075653041404195 [Eh]
	 Singles Energy            =      -0.0000000000000000 [Eh]
	 Same-Spin Energy          =      -0.0348478530031009 [Eh]
	 Opposite-Spin Energy      =      -0.1174036756611238 [Eh]
	 Correlation Energy        =      -0.1522515286642247 [Eh]
	 Total Energy              =     -76.0598168328046427 [Eh]

	 ================> DF-SCS-MP2 Energies <==================
	-----------------------------------------------------------
	 SCS Same-Spin Scale       =       0.3333333333333333 [-]
	 SCS Opposite-Spin Scale   =       1.2000000000000000 [-]
	 SCS Same-Spin Energy      =      -0.0116159510010336 [Eh]
	 SCS Opposite-Spin Energy  =      -0.1408844107933486 [Eh]
	 SCS Correlation Energy    =      -0.1525003617943822 [Eh]
	 SCS Total Energy          =     -76.0600656659348004 [Eh]
	-----------------------------------------------------------

  -Total Gradient:
     Atom            X                  Y                   Z
    ------   -----------------  -----------------  -----------------
       1        0.061714582884     0.089754767434    -0.000000000000
       2        0.001982977072    -0.103366043631     0.000000000000
       3       -0.063697559956     0.013611276197     0.000000000000

*** Psi4 exiting successfully. Buy a developer a beer!
