                               Psi4 1.2.1 release

  ==> Input File <==

--------------------------------------------------------------------------
# density fitted hartree fock
molecule h2o {
0 1
H 0.0000000000 0.0000000000 1.0250000000
H 0.0000000000 1.0250000000 0.0000000000
O 0.0000000000 0.0000000000 0.0000000000
}

set basis 6-31g
energy('hf')

--------------------------------------------------------------------------

    Molecular point group: c2v

    Geometry (in Angstrom), charge = 0, multiplicity = 1:

       Center              X                  Y                   Z               Mass
    ------------   -----------------  -----------------  -----------------  -----------------
         H            0.000000000000    -0.724784450716     0.643670290765     1.007825032070
         H           -0.000000000000     0.724784450716     0.643670290765     1.007825032070
         O           -0.000000000000     0.000000000000    -0.081114159952    15.994914619560

  Charge       = 0
  Multiplicity = 1
  Basis Set: 6-31G
    Blend: 6-31G
  Basis Set: (6-31G AUX)
    Blend: CC-PVDZ-JKFIT

    Orbital Energies [Eh]
    ---------------------

    Doubly Occupied:

       1A1   -20.584466     2A1    -1.338409     1B2    -0.649839
       3A1    -0.578548     1B1    -0.505833

  @DF-RHF Final Energy:   -75.96586833974084

   => Energetics <=

    Nuclear Repulsion Energy =              8.6253854927642557
    One-Electron Energy =                -121.8683125867027854
    Two-Electron Energy =                  37.2770587541977036
    Total Energy =                        -75.9658683397408367

  Dipole Moment: [D]
     X:    -0.0000      Y:     0.0000      Z:     2.8714     Total:     2.8714

*** Psi4 exiting successfully. Buy a developer a beer!
