                               Psi4 1.2a1.dev429

  ==> Input File <==

--------------------------------------------------------------------------
# density-fitted hartree fock energies and gradients with 6-31g
molecule h2o {
0 1
O 0.0000000000 0.0000000000 0.0000000000
H 0.0000000000 0.0000000000 1.5000000000
H 0.0000000000 1.1817693036 -0.2083778132
}

set basis 6-31g

gradient('mp2')
--------------------------------------------------------------------------

    Molecular point group: cs
  Charge       = 0
  Multiplicity = 1
  Basis Set: 6-31G
    Blend: 6-31G
  Basis Set: (6-31G AUX)
    Blend: CC-PVDZ-JKFIT

    Orbital Energies (a.u.)
    -----------------------

    Doubly Occupied:

       1Ap   -20.629607     2Ap    -1.244071     3Ap    -0.564774
       1App   -0.500792     4Ap    -0.490434

  @DF-RHF Final Energy:   -75.83844794053638

   => Energetics <=

    Nuclear Repulsion Energy =              6.6048705336926865
    One-Electron Energy =                -118.0272807979816605
    Two-Electron Energy =                  35.5839623237526013
    Total Energy =                        -75.8384479405363692
  Basis Set: (6-31G AUX)
    Blend: CC-PVDZ-RI
    Molecular point group: cs

    Geometry (in Angstrom), charge = 0, multiplicity = 1:

       Center              X                  Y                   Z               Mass
    ------------   -----------------  -----------------  -----------------  -----------------
           O          0.066128780925     0.072275866676     0.000000000000    15.994914619560
           H          0.066128780925    -1.427724133324     0.000000000000     1.007825032070
           H         -1.115640522675     0.280653679876     0.000000000000     1.007825032070

  Basis Set: 6-31G
    Blend: 6-31G
  Basis Set: (6-31G AUX)
    Blend: CC-PVDZ-JKFIT
  Basis Set: (6-31G AUX)
    Blend: CC-PVDZ-JKFIT
	 Reference Energy          =     -75.8384479405363834 [Eh]
	 Singles Energy            =      -0.0000000000000000 [Eh]
	 Same-Spin Energy          =      -0.0375656945665578 [Eh]
	 Opposite-Spin Energy      =      -0.1305872505022290 [Eh]
	 Correlation Energy        =      -0.1681529450687868 [Eh]
	 Total Energy              =     -76.0066008856051667 [Eh]

	 ================> DF-SCS-MP2 Energies <==================
	-----------------------------------------------------------
	 SCS Same-Spin Scale       =       0.3333333333333333 [-]
	 SCS Opposite-Spin Scale   =       1.2000000000000000 [-]
	 SCS Same-Spin Energy      =      -0.0125218981888526 [Eh]
	 SCS Opposite-Spin Energy  =      -0.1567047006026748 [Eh]
	 SCS Correlation Energy    =      -0.1692265987915274 [Eh]
	 SCS Total Energy          =     -76.0076745393279083 [Eh]
	-----------------------------------------------------------

  -Total Gradient:
     Atom            X                  Y                   Z
    ------   -----------------  -----------------  -----------------
       1        0.077702179010     0.075052835231    -0.000000000000
       2        0.006140060577    -0.097629962858    -0.000000000000
       3       -0.083842239587     0.022577127627     0.000000000000

*** Psi4 exiting successfully. Buy a developer a beer!
