                               Psi4 1.2a1.dev429

  ==> Input File <==

--------------------------------------------------------------------------
# density-fitted hartree fock energies and gradients with 6-31g
molecule h2o {
0 1
O 0.0000000000 0.0000000000 0.0000000000
H 0.0000000000 0.0000000000 1.3000000000
H 0.0000000000 0.3420201433 -0.9396926208
}

set basis 6-31g

gradient('mp2')
--------------------------------------------------------------------------

    Molecular point group: cs
  Charge       = 0
  Multiplicity = 1
  Basis Set: 6-31G
    Blend: 6-31G
  Basis Set: (6-31G AUX)
    Blend: CC-PVDZ-JKFIT

    Orbital Energies (a.u.)
    -----------------------

    Doubly Occupied:

       1Ap   -20.518326     2Ap    -1.229030     3Ap    -0.640558
       1App   -0.443991     4Ap    -0.441788

  @DF-RHF Final Energy:   -75.86784453996592

   => Energetics <=

    Nuclear Repulsion Energy =              7.7234573897924506
    One-Electron Energy =                -120.6352173114930935
    Two-Electron Energy =                  37.0439153817347204
    Total Energy =                        -75.8678445399659296
  Basis Set: (6-31G AUX)
    Blend: CC-PVDZ-RI
    Molecular point group: cs

    Geometry (in Angstrom), charge = 0, multiplicity = 1:

       Center              X                  Y                   Z               Mass
    ------------   -----------------  -----------------  -----------------  -----------------
           O          0.019138570497     0.020161877341     0.000000000000    15.994914619560
           H          0.019138570497    -1.279838122659     0.000000000000     1.007825032070
           H         -0.322881572803     0.959854498141     0.000000000000     1.007825032070

  Basis Set: 6-31G
    Blend: 6-31G
  Basis Set: (6-31G AUX)
    Blend: CC-PVDZ-JKFIT
  Basis Set: (6-31G AUX)
    Blend: CC-PVDZ-JKFIT
	 Reference Energy          =     -75.8678445399659154 [Eh]
	 Singles Energy            =      -0.0000000000000000 [Eh]
	 Same-Spin Energy          =      -0.0331951236591720 [Eh]
	 Opposite-Spin Energy      =      -0.1055496074687858 [Eh]
	 Correlation Energy        =      -0.1387447311279578 [Eh]
	 Total Energy              =     -76.0065892710938726 [Eh]

	 ================> DF-SCS-MP2 Energies <==================
	-----------------------------------------------------------
	 SCS Same-Spin Scale       =       0.3333333333333333 [-]
	 SCS Opposite-Spin Scale   =       1.2000000000000000 [-]
	 SCS Same-Spin Energy      =      -0.0110650412197240 [Eh]
	 SCS Opposite-Spin Energy  =      -0.1266595289625429 [Eh]
	 SCS Correlation Energy    =      -0.1377245701822669 [Eh]
	 SCS Total Energy          =     -76.0055691101481870 [Eh]
	-----------------------------------------------------------

  -Total Gradient:
     Atom            X                  Y                   Z
    ------   -----------------  -----------------  -----------------
       1       -0.053942124878     0.086791251948     0.000000000000
       2        0.029920758647    -0.134520271654    -0.000000000000
       3        0.024021366230     0.047729019706     0.000000000000

*** Psi4 exiting successfully. Buy a developer a beer!
