                               Psi4 1.2a1.dev429

  ==> Input File <==

--------------------------------------------------------------------------
# density-fitted hartree fock energies and gradients with 6-31g
molecule h2o {
0 1
O 0.0000000000 0.0000000000 0.0000000000
H 0.0000000000 0.0000000000 1.0000000000
H 0.0000000000 0.0000000000 -1.4000000000
}

set basis 6-31g

gradient('mp2')
--------------------------------------------------------------------------

    Molecular point group: c2v
  Charge       = 0
  Multiplicity = 1
  Basis Set: 6-31G
    Blend: 6-31G
  Basis Set: (6-31G AUX)
    Blend: CC-PVDZ-JKFIT

    Orbital Energies (a.u.)
    -----------------------

    Doubly Occupied:

       1A1   -20.496131     2A1    -1.202817     3A1    -0.608884
       1B1    -0.423295     1B2    -0.423295

  @DF-RHF Final Energy:   -75.82578644544616

   => Energetics <=

    Nuclear Repulsion Energy =              7.4777779356705949
    One-Electron Energy =                -120.2982851246444937
    Two-Electron Energy =                  36.9947207435277505
    Total Energy =                        -75.8257864454461412
  Basis Set: (6-31G AUX)
    Blend: CC-PVDZ-RI
    Molecular point group: c2v

    Geometry (in Angstrom), charge = 0, multiplicity = 1:

       Center              X                  Y                   Z               Mass
    ------------   -----------------  -----------------  -----------------  -----------------
           O          0.000000000000     0.000000000000     0.022382974654    15.994914619560
           H          0.000000000000     0.000000000000     1.022382974654     1.007825032070
           H          0.000000000000     0.000000000000    -1.377617025346     1.007825032070

  Basis Set: 6-31G
    Blend: 6-31G
  Basis Set: (6-31G AUX)
    Blend: CC-PVDZ-JKFIT
  Basis Set: (6-31G AUX)
    Blend: CC-PVDZ-JKFIT
	 Reference Energy          =     -75.8257864454461554 [Eh]
	 Singles Energy            =      -0.0000000000000000 [Eh]
	 Same-Spin Energy          =      -0.0334529090345171 [Eh]
	 Opposite-Spin Energy      =      -0.1049784067786650 [Eh]
	 Correlation Energy        =      -0.1384313158131820 [Eh]
	 Total Energy              =     -75.9642177612593343 [Eh]

	 ================> DF-SCS-MP2 Energies <==================
	-----------------------------------------------------------
	 SCS Same-Spin Scale       =       0.3333333333333333 [-]
	 SCS Opposite-Spin Scale   =       1.2000000000000000 [-]
	 SCS Same-Spin Energy      =      -0.0111509696781724 [Eh]
	 SCS Opposite-Spin Energy  =      -0.1259740881343980 [Eh]
	 SCS Correlation Energy    =      -0.1371250578125703 [Eh]
	 SCS Total Energy          =     -75.9629115032587237 [Eh]
	-----------------------------------------------------------

  -Total Gradient:
     Atom            X                  Y                   Z
    ------   -----------------  -----------------  -----------------
       1       -0.000000000000     0.000000000000     0.104986722784
       2        0.000000000000    -0.000000000000     0.040290426179
       3       -0.000000000000    -0.000000000000    -0.145277148964

*** Psi4 exiting successfully. Buy a developer a beer!
