                               Psi4 1.2a1.dev429

  ==> Input File <==

--------------------------------------------------------------------------
# density-fitted hartree fock energies and gradients with 6-31g
molecule h20 {
0 1
O 0.0000000000 0.0000000000 0.0000000000
H 0.0000000000 0.0000000000 0.7000000000
H 0.0000000000 0.3078181290 -0.8457233587
}

set basis 6-31g

gradient('hf')
--------------------------------------------------------------------------

    Molecular point group: cs
  Charge       = 0
  Multiplicity = 1
  Basis Set: 6-31G
    Blend: 6-31G
  Basis Set: (6-31G AUX)
    Blend: CC-PVDZ-JKFIT

    Orbital Energies (a.u.)
    -----------------------

    Doubly Occupied:

       1Ap   -20.499638     2Ap    -1.409445     3Ap    -0.888251
       4Ap    -0.503461     1App   -0.498476

  @DF-RHF Final Energy:   -75.83639632194213

   => Energetics <=

    Nuclear Repulsion Energy =             11.0872932786362988
    One-Electron Energy =                -126.2488375484347500
    Two-Electron Energy =                  39.3251479478563226
    Total Energy =                        -75.8363963219421322
    Molecular point group: cs

    Geometry (in Angstrom), charge = 0, multiplicity = 1:

       Center              X                  Y                   Z               Mass
    ------------   -----------------  -----------------  -----------------  -----------------
           O          0.017224713449    -0.008154305611     0.000000000000    15.994914619560
           H          0.017224713449    -0.708154305611     0.000000000000     1.007825032070
           H         -0.290593415551     0.837569053089     0.000000000000     1.007825032070

  Basis Set: 6-31G
    Blend: 6-31G
  Basis Set: (6-31G AUX)
    Blend: CC-PVDZ-JKFIT

  -Total Gradient:
     Atom            X                  Y                   Z
    ------   -----------------  -----------------  -----------------
       1       -0.050342871957    -0.689824851537     0.000000000000
       2        0.023653899831     0.709361573187     0.000000000000
       3        0.026688972127    -0.019536721651     0.000000000000

*** Psi4 exiting successfully. Buy a developer a beer!
