                               Psi4 1.2a1.dev429

  ==> Input File <==

--------------------------------------------------------------------------
# density-fitted hartree fock energies and gradients with 6-31g
molecule h20 {
0 1
O 0.0000000000 0.0000000000 0.0000000000
H 0.0000000000 0.0000000000 1.4000000000
H 0.0000000000 0.1215537244 -0.6893654271
}

set basis 6-31g

gradient('hf')
--------------------------------------------------------------------------

    Molecular point group: cs
  Charge       = 0
  Multiplicity = 1
  Basis Set: 6-31G
    Blend: 6-31G
  Basis Set: (6-31G AUX)
    Blend: CC-PVDZ-JKFIT

    Orbital Energies (a.u.)
    -----------------------

    Doubly Occupied:

       1Ap   -20.480670     2Ap    -1.335058     3Ap    -0.689840
       1App   -0.445028     4Ap    -0.443678

  @DF-RHF Final Energy:   -75.70716414434813

   => Energetics <=

    Nuclear Repulsion Energy =              9.3244534988242425
    One-Electron Energy =                -123.2746877061272386
    Two-Electron Energy =                  38.2430700629548710
    Total Energy =                        -75.7071641443481269
    Molecular point group: cs

    Geometry (in Angstrom), charge = 0, multiplicity = 1:

       Center              X                  Y                   Z               Mass
    ------------   -----------------  -----------------  -----------------  -----------------
           O          0.006801834831     0.039765289085     0.000000000000    15.994914619560
           H          0.006801834831    -1.360234710915     0.000000000000     1.007825032070
           H         -0.114751889569     0.729130716185     0.000000000000     1.007825032070

  Basis Set: 6-31G
    Blend: 6-31G
  Basis Set: (6-31G AUX)
    Blend: CC-PVDZ-JKFIT

  -Total Gradient:
     Atom            X                  Y                   Z
    ------   -----------------  -----------------  -----------------
       1       -0.165743097096     0.885170289346     0.000000000000
       2        0.013029495471    -0.169156166437     0.000000000000
       3        0.152713601625    -0.716014122909     0.000000000000

*** Psi4 exiting successfully. Buy a developer a beer!
