                               Psi4 1.2a1.dev429

  ==> Input File <==

--------------------------------------------------------------------------
# density-fitted hartree fock energies and gradients with 6-31g
molecule h2o {
0 1
O 0.0000000000 0.0000000000 0.0000000000
H 0.0000000000 0.0000000000 1.2000000000
H 0.0000000000 1.1000000000 0.0000000000
}

set basis 6-31g

gradient('mp2')
--------------------------------------------------------------------------

    Molecular point group: cs
  Charge       = 0
  Multiplicity = 1
  Basis Set: 6-31G
    Blend: 6-31G
  Basis Set: (6-31G AUX)
    Blend: CC-PVDZ-JKFIT

    Orbital Energies (a.u.)
    -----------------------

    Doubly Occupied:

       1Ap   -20.608496     2Ap    -1.291144     3Ap    -0.602458
       4Ap    -0.554376     1App   -0.504359

  @DF-RHF Final Energy:   -75.92662275580042

   => Energetics <=

    Nuclear Repulsion Energy =              7.7014805494615066
    One-Electron Energy =                -120.1345419925722808
    Two-Electron Energy =                  36.5064386873103430
    Total Energy =                        -75.9266227558004232
  Basis Set: (6-31G AUX)
    Blend: CC-PVDZ-RI
    Molecular point group: cs

    Geometry (in Angstrom), charge = 0, multiplicity = 1:

       Center              X                  Y                   Z               Mass
    ------------   -----------------  -----------------  -----------------  -----------------
           O          0.061553180300     0.067148923963     0.000000000000    15.994914619560
           H          0.061553180300    -1.132851076037     0.000000000000     1.007825032070
           H         -1.038446819700     0.067148923963     0.000000000000     1.007825032070

  Basis Set: 6-31G
    Blend: 6-31G
  Basis Set: (6-31G AUX)
    Blend: CC-PVDZ-JKFIT
  Basis Set: (6-31G AUX)
    Blend: CC-PVDZ-JKFIT
	 Reference Energy          =     -75.9266227558004232 [Eh]
	 Singles Energy            =      -0.0000000000000000 [Eh]
	 Same-Spin Energy          =      -0.0343965144253510 [Eh]
	 Opposite-Spin Energy      =      -0.1148021241307859 [Eh]
	 Correlation Energy        =      -0.1491986385561369 [Eh]
	 Total Energy              =     -76.0758213943565664 [Eh]

	 ================> DF-SCS-MP2 Energies <==================
	-----------------------------------------------------------
	 SCS Same-Spin Scale       =       0.3333333333333333 [-]
	 SCS Opposite-Spin Scale   =       1.2000000000000000 [-]
	 SCS Same-Spin Energy      =      -0.0114655048084503 [Eh]
	 SCS Opposite-Spin Energy  =      -0.1377625489569431 [Eh]
	 SCS Correlation Energy    =      -0.1492280537653934 [Eh]
	 SCS Total Energy          =     -76.0758508095658215 [Eh]
	-----------------------------------------------------------

  -Total Gradient:
     Atom            X                  Y                   Z
    ------   -----------------  -----------------  -----------------
       1        0.074483572776     0.102556164247    -0.000000000000
       2       -0.014029807752    -0.087250919612     0.000000000000
       3       -0.060453765025    -0.015305244635    -0.000000000000

*** Psi4 exiting successfully. Buy a developer a beer!
