                               Psi4 1.2a1.dev429

  ==> Input File <==

--------------------------------------------------------------------------
# density-fitted hartree fock energies and gradients with 6-31g
molecule h20 {
0 1
O 0.0000000000 0.0000000000 0.0000000000
O 0.0000000000 0.0000000000 1.3868686869
}

set basis 6-31g

gradient('hf')
--------------------------------------------------------------------------

    Molecular point group: d2h
  Charge       = 0
  Multiplicity = 1
  Basis Set: 6-31G
    Blend: 6-31G
  Basis Set: (6-31G AUX)
    Blend: CC-PVDZ-JKFIT

    Orbital Energies (a.u.)
    -----------------------

    Doubly Occupied:

       1Ag   -20.784788     1B1u  -20.784306     2Ag    -1.549548
       2B1u   -1.164574     1B2u   -0.729919     3Ag    -0.676131
       1B3u   -0.587323     1B3g   -0.540030

  @DF-RHF Final Energy:  -149.42057547636827

   => Energetics <=

    Nuclear Repulsion Energy =             24.4200057796834500
    One-Electron Energy =                -254.0479253034885687
    Two-Electron Energy =                  80.2073440474368766
    Total Energy =                       -149.4205754763682421
    Molecular point group: d2h

    Geometry (in Angstrom), charge = 0, multiplicity = 1:

       Center              X                  Y                   Z               Mass
    ------------   -----------------  -----------------  -----------------  -----------------
           O          0.000000000000     0.000000000000    -0.693434343450    15.994914619560
           O          0.000000000000     0.000000000000     0.693434343450    15.994914619560

  Basis Set: 6-31G
    Blend: 6-31G
  Basis Set: (6-31G AUX)
    Blend: CC-PVDZ-JKFIT

  -Total Gradient:
     Atom            X                  Y                   Z
    ------   -----------------  -----------------  -----------------
       1        0.000000000000     0.000000000000    -0.181611929396
       2       -0.000000000000     0.000000000000     0.181611929396

*** Psi4 exiting successfully. Buy a developer a beer!
