                               Psi4 1.2a1.dev429

  ==> Input File <==

--------------------------------------------------------------------------
# density-fitted hartree fock energies and gradients with 6-31g
molecule h20 {
0 1
O 0.0000000000 0.0000000000 0.0000000000
H 0.0000000000 0.0000000000 0.8000000000
H 0.0000000000 0.9526279442 -0.5500000000
}

set basis 6-31g

gradient('hf')
--------------------------------------------------------------------------

    Molecular point group: cs
  Charge       = 0
  Multiplicity = 1
  Basis Set: 6-31G
    Blend: 6-31G
  Basis Set: (6-31G AUX)
    Blend: CC-PVDZ-JKFIT

    Orbital Energies (a.u.)
    -----------------------

    Doubly Occupied:

       1Ap   -20.544320     2Ap    -1.367601     3Ap    -0.739044
       4Ap    -0.529368     1App   -0.495266

  @DF-RHF Final Energy:   -75.93057753905666

   => Energetics <=

    Nuclear Repulsion Energy =              9.4606062191010594
    One-Electron Energy =                -123.4311718174658381
    Two-Electron Energy =                  38.0399880593081150
    Total Energy =                        -75.9305775390566566
    Molecular point group: cs

    Geometry (in Angstrom), charge = 0, multiplicity = 1:

       Center              X                  Y                   Z               Mass
    ------------   -----------------  -----------------  -----------------  -----------------
           O          0.053306617825     0.013989359159     0.000000000000    15.994914619560
           H          0.053306617825    -0.786010640841     0.000000000000     1.007825032070
           H         -0.899321326375     0.563989359159     0.000000000000     1.007825032070

  Basis Set: 6-31G
    Blend: 6-31G
  Basis Set: (6-31G AUX)
    Blend: CC-PVDZ-JKFIT

  -Total Gradient:
     Atom            X                  Y                   Z
    ------   -----------------  -----------------  -----------------
       1        0.073914169736    -0.359022379421     0.000000000000
       2        0.016943715245     0.292336525475     0.000000000000
       3       -0.090857884980     0.066685853946     0.000000000000

*** Psi4 exiting successfully. Buy a developer a beer!
