                               Psi4 1.3.1 release

  ==> Input File <==

--------------------------------------------------------------------------
# density fitted hartree fock
molecule h2o {
0 1
H 0.0000000000 0.0000000000 1.0500000000
H 0.0000000000 0.7361215932 -0.4250000000
O 0.0000000000 0.0000000000 0.0000000000
}

set basis 6-31g
energy('hf')

--------------------------------------------------------------------------

    Molecular point group: cs

    Geometry (in Angstrom), charge = 0, multiplicity = 1:

       Center              X                  Y                   Z               Mass
    ------------   -----------------  -----------------  -----------------  -----------------
         H            0.041191477414    -1.015026602097     0.000000000000     1.007825032230
         H           -0.694930115786     0.459973397903     0.000000000000     1.007825032230
         O            0.041191477414     0.034973397903     0.000000000000    15.994914619570

  Charge       = 0
  Multiplicity = 1
  Basis Set: 6-31G
    Blend: 6-31G
  Basis Set: (6-31G AUX)
    Blend: CC-PVDZ-JKFIT

    Orbital Energies [Eh]
    ---------------------

    Doubly Occupied:

       1Ap   -20.545473     2Ap    -1.353995     3Ap    -0.738750
       4Ap    -0.531040     1App   -0.494436

  @DF-RHF Final Energy:   -75.96105793712582

   => Energetics <=

    Nuclear Repulsion Energy =              9.3333261316413694
    One-Electron Energy =                -123.2613725923987715
    Two-Electron Energy =                  37.9669885236315849
    Total Energy =                        -75.9610579371258154

  Dipole Moment: [D]
     X:    -1.9182      Y:    -1.3370      Z:     0.0000     Total:     2.3381

*** Psi4 exiting successfully. Buy a developer a beer!
