                               Psi4 1.2a1.dev429

  ==> Input File <==

--------------------------------------------------------------------------
# density-fitted hartree fock energies and gradients with 6-31g
molecule h20 {
0 1
O 0.0000000000 0.0000000000 0.0000000000
H 0.0000000000 0.0000000000 1.0000000000
H 0.0000000000 1.0392304845 -0.6000000000
}

set basis 6-31g

gradient('hf')
--------------------------------------------------------------------------

    Molecular point group: cs
  Charge       = 0
  Multiplicity = 1
  Basis Set: 6-31G
    Blend: 6-31G
  Basis Set: (6-31G AUX)
    Blend: CC-PVDZ-JKFIT

    Orbital Energies (a.u.)
    -----------------------

    Doubly Occupied:

       1Ap   -20.571116     2Ap    -1.285719     3Ap    -0.657239
       4Ap    -0.508845     1App   -0.486188

  @DF-RHF Final Energy:   -75.93952977702247

   => Energetics <=

    Nuclear Repulsion Energy =              8.0386299479470207
    One-Electron Energy =                -120.9381065770717214
    Two-Electron Energy =                  36.9599468521022487
    Total Energy =                        -75.9395297770224573
    Molecular point group: cs

    Geometry (in Angstrom), charge = 0, multiplicity = 1:

       Center              X                  Y                   Z               Mass
    ------------   -----------------  -----------------  -----------------  -----------------
           O          0.058152673987     0.022382974654     0.000000000000    15.994914619560
           H          0.058152673987    -0.977617025346     0.000000000000     1.007825032070
           H         -0.981077810513     0.622382974654     0.000000000000     1.007825032070

  Basis Set: 6-31G
    Blend: 6-31G
  Basis Set: (6-31G AUX)
    Blend: CC-PVDZ-JKFIT

  -Total Gradient:
     Atom            X                  Y                   Z
    ------   -----------------  -----------------  -----------------
       1        0.082829519111    -0.034221716022     0.000000000000
       2        0.021219767302    -0.046269898571     0.000000000000
       3       -0.104049286413     0.080491614593     0.000000000000

*** Psi4 exiting successfully. Buy a developer a beer!
