                               Psi4 1.2a1.dev429

  ==> Input File <==

--------------------------------------------------------------------------
# density-fitted hartree fock energies and gradients with 6-31g
molecule h20 {
0 1
O 0.0000000000 0.0000000000 0.0000000000
H 0.0000000000 0.0000000000 0.9000000000
H 0.0000000000 0.5000000000 -0.8660254038
}

set basis 6-31g

gradient('hf')
--------------------------------------------------------------------------

    Molecular point group: cs
  Charge       = 0
  Multiplicity = 1
  Basis Set: 6-31G
    Blend: 6-31G
  Basis Set: (6-31G AUX)
    Blend: CC-PVDZ-JKFIT

    Orbital Energies (a.u.)
    -----------------------

    Doubly Occupied:

       1Ap   -20.518674     2Ap    -1.314563     3Ap    -0.764973
       4Ap    -0.485361     1App   -0.476523

  @DF-RHF Final Energy:   -75.95395371956748

   => Energetics <=

    Nuclear Repulsion Energy =              9.2255256514568913
    One-Electron Energy =                -123.2387703561515622
    Two-Electron Energy =                  38.0592909851272054
    Total Energy =                        -75.9539537195674654
    Molecular point group: cs

    Geometry (in Angstrom), charge = 0, multiplicity = 1:

       Center              X                  Y                   Z               Mass
    ------------   -----------------  -----------------  -----------------  -----------------
           O          0.027978718318     0.001901131314     0.000000000000    15.994914619560
           H          0.027978718318    -0.898098868686     0.000000000000     1.007825032070
           H         -0.472021281682     0.867926535114     0.000000000000     1.007825032070

  Basis Set: 6-31G
    Blend: 6-31G
  Basis Set: (6-31G AUX)
    Blend: CC-PVDZ-JKFIT

  -Total Gradient:
     Atom            X                  Y                   Z
    ------   -----------------  -----------------  -----------------
       1       -0.020039412023    -0.123635596571     0.000000000000
       2        0.031288465666     0.047832425888     0.000000000000
       3       -0.011249053644     0.075803170683     0.000000000000

*** Psi4 exiting successfully. Buy a developer a beer!
