                               Psi4 1.2a1.dev429

  ==> Input File <==

--------------------------------------------------------------------------
# density-fitted hartree fock energies and gradients with 6-31g
molecule h2o {
0 1
O 0.0000000000 0.0000000000 0.0000000000
H 0.0000000000 0.0000000000 1.1000000000
H 0.0000000000 0.5500000000 -0.9526279442
}

set basis 6-31g

gradient('mp2')
--------------------------------------------------------------------------

    Molecular point group: c2v
  Charge       = 0
  Multiplicity = 1
  Basis Set: 6-31G
    Blend: 6-31G
  Basis Set: (6-31G AUX)
    Blend: CC-PVDZ-JKFIT

    Orbital Energies (a.u.)
    -----------------------

    Doubly Occupied:

       1A1   -20.533417     2A1    -1.245338     1B2    -0.667596
       3A1    -0.462378     1B1    -0.458969

  @DF-RHF Final Energy:   -75.91539757234922

   => Energetics <=

    Nuclear Repulsion Energy =              7.9461432881329355
    One-Electron Energy =                -120.9876849497519657
    Two-Electron Energy =                  37.1261440892698147
    Total Energy =                        -75.9153975723492209
  Basis Set: (6-31G AUX)
    Blend: CC-PVDZ-RI
    Molecular point group: c2v

    Geometry (in Angstrom), charge = 0, multiplicity = 1:

       Center              X                  Y                   Z               Mass
    ------------   -----------------  -----------------  -----------------  -----------------
           O          0.000000000000     0.000000000000    -0.031862270696    15.994914619560
           H          0.000000000000    -1.062518408936     0.252838678912     1.007825032070
           H         -0.000000000000     1.062518408936     0.252838678912     1.007825032070

  Basis Set: 6-31G
    Blend: 6-31G
  Basis Set: (6-31G AUX)
    Blend: CC-PVDZ-JKFIT
  Basis Set: (6-31G AUX)
    Blend: CC-PVDZ-JKFIT
	 Reference Energy          =     -75.9153975723492209 [Eh]
	 Singles Energy            =      -0.0000000000000000 [Eh]
	 Same-Spin Energy          =      -0.0327416541465830 [Eh]
	 Opposite-Spin Energy      =      -0.1041480189431526 [Eh]
	 Correlation Energy        =      -0.1368896730897355 [Eh]
	 Total Energy              =     -76.0522872454389613 [Eh]

	 ================> DF-SCS-MP2 Energies <==================
	-----------------------------------------------------------
	 SCS Same-Spin Scale       =       0.3333333333333333 [-]
	 SCS Opposite-Spin Scale   =       1.2000000000000000 [-]
	 SCS Same-Spin Energy      =      -0.0109138847155277 [Eh]
	 SCS Opposite-Spin Energy  =      -0.1249776227317831 [Eh]
	 SCS Correlation Energy    =      -0.1358915074473107 [Eh]
	 SCS Total Energy          =     -76.0512890797965326 [Eh]
	-----------------------------------------------------------

  -Total Gradient:
     Atom            X                  Y                   Z
    ------   -----------------  -----------------  -----------------
       1        0.000000000000    -0.000000000006     0.021145435338
       2       -0.000000000000    -0.102116933464    -0.010572717669
       3        0.000000000000     0.102116933469    -0.010572717669

*** Psi4 exiting successfully. Buy a developer a beer!
