                               Psi4 1.2a1.dev429

  ==> Input File <==

--------------------------------------------------------------------------
# density-fitted hartree fock energies and gradients with 6-31g
molecule h2o {
0 1
O 0.0000000000 0.0000000000 0.0000000000
H 0.0000000000 0.0000000000 1.3000000000
H 0.0000000000 1.5000000000 0.0000000000
}

set basis 6-31g

gradient('mp2')
--------------------------------------------------------------------------

    Molecular point group: cs
  Charge       = 0
  Multiplicity = 1
  Basis Set: 6-31G
    Blend: 6-31G
  Basis Set: (6-31G AUX)
    Blend: CC-PVDZ-JKFIT

    Orbital Energies (a.u.)
    -----------------------

    Doubly Occupied:

       1Ap   -20.644696     2Ap    -1.238576     3Ap    -0.541297
       1App   -0.506776     4Ap    -0.496386

  @DF-RHF Final Energy:   -75.81452404795841

   => Energetics <=

    Nuclear Repulsion Energy =              6.3453492018597162
    One-Electron Energy =                -117.4642845153059625
    Two-Electron Energy =                  35.3044112654878361
    Total Energy =                        -75.8145240479584004
  Basis Set: (6-31G AUX)
    Blend: CC-PVDZ-RI
    Molecular point group: cs

    Geometry (in Angstrom), charge = 0, multiplicity = 1:

       Center              X                  Y                   Z               Mass
    ------------   -----------------  -----------------  -----------------  -----------------
           O          0.083936154954     0.072744667627     0.000000000000    15.994914619560
           H          0.083936154954    -1.227255332373     0.000000000000     1.007825032070
           H         -1.416063845046     0.072744667627     0.000000000000     1.007825032070

  Basis Set: 6-31G
    Blend: 6-31G
  Basis Set: (6-31G AUX)
    Blend: CC-PVDZ-JKFIT
  Basis Set: (6-31G AUX)
    Blend: CC-PVDZ-JKFIT
	 Reference Energy          =     -75.8145240479584146 [Eh]
	 Singles Energy            =      -0.0000000000000000 [Eh]
	 Same-Spin Energy          =      -0.0394427812151467 [Eh]
	 Opposite-Spin Energy      =      -0.1368885533720864 [Eh]
	 Correlation Energy        =      -0.1763313345872331 [Eh]
	 Total Energy              =     -75.9908553825456465 [Eh]

	 ================> DF-SCS-MP2 Energies <==================
	-----------------------------------------------------------
	 SCS Same-Spin Scale       =       0.3333333333333333 [-]
	 SCS Opposite-Spin Scale   =       1.2000000000000000 [-]
	 SCS Same-Spin Energy      =      -0.0131475937383822 [Eh]
	 SCS Opposite-Spin Energy  =      -0.1642662640465037 [Eh]
	 SCS Correlation Energy    =      -0.1774138577848859 [Eh]
	 SCS Total Energy          =     -75.9919379057432991 [Eh]
	-----------------------------------------------------------

  -Total Gradient:
     Atom            X                  Y                   Z
    ------   -----------------  -----------------  -----------------
       1        0.094023709927     0.093381944358     0.000000000000
       2       -0.000958191624    -0.092551514589     0.000000000000
       3       -0.093065518303    -0.000830429770    -0.000000000000

*** Psi4 exiting successfully. Buy a developer a beer!
