                               Psi4 1.2a1.dev429

  ==> Input File <==

--------------------------------------------------------------------------
# density-fitted MP2 energies and gradients with 6-31g

molecule h20 {
-1 1
C 0.0000000000 0.0000000000 0.0000000000
X 0.0000000000 0.0000000000 1.0000000000
H 0.0000000000 0.8648641763 0.7257072113
H 0.7489943475 -0.4324320881 0.7257072113
H -0.7489943475 -0.4324320881 0.7257072113
}

set reference rhf
set basis 6-31g

gradient('mp2')
--------------------------------------------------------------------------

    Molecular point group: cs
  Charge       = -1
  Multiplicity = 1
  Basis Set: 6-31G
    Blend: 6-31G
  Basis Set: (6-31G AUX)
    Blend: CC-PVDZ-JKFIT

    Orbital Energies (a.u.)
    -----------------------

    Doubly Occupied:

       1Ap   -10.891144     2Ap    -0.624772     1App   -0.167748
       3Ap    -0.167748     4Ap    -0.041223

  @DF-RHF Final Energy:   -39.41755775331757

   => Energetics <=

    Nuclear Repulsion Energy =              9.4966131307631976
    One-Electron Energy =                 -74.0430726822942518
    Two-Electron Energy =                  25.1289017982134837
    Total Energy =                        -39.4175577533175741
  Basis Set: (6-31G AUX)
    Blend: CC-PVDZ-RI
    Molecular point group: cs

    Geometry (in Angstrom), charge = -1, multiplicity = 1:

       Center              X                  Y                   Z               Mass
    ------------   -----------------  -----------------  -----------------  -----------------
           C          0.000000000003    -0.146048611686     0.000000000000    12.000000000000
           H         -0.432432088160     0.579658599614     0.748994347478     1.007825032070
           H         -0.432432088160     0.579658599614    -0.748994347478     1.007825032070
           H          0.864864176279     0.579658599614     0.000000000000     1.007825032070

  Basis Set: 6-31G
    Blend: 6-31G
  Basis Set: (6-31G AUX)
    Blend: CC-PVDZ-JKFIT
  Basis Set: (6-31G AUX)
    Blend: CC-PVDZ-JKFIT
	 Reference Energy          =     -39.4175577533175741 [Eh]
	 Singles Energy            =      -0.0000000000000000 [Eh]
	 Same-Spin Energy          =      -0.0170782558703389 [Eh]
	 Opposite-Spin Energy      =      -0.0831626918556638 [Eh]
	 Correlation Energy        =      -0.1002409477260026 [Eh]
	 Total Energy              =     -39.5177987010435743 [Eh]

	 ================> DF-SCS-MP2 Energies <==================
	-----------------------------------------------------------
	 SCS Same-Spin Scale       =       0.3333333333333333 [-]
	 SCS Opposite-Spin Scale   =       1.2000000000000000 [-]
	 SCS Same-Spin Energy      =      -0.0056927519567796 [Eh]
	 SCS Opposite-Spin Energy  =      -0.0997952302267965 [Eh]
	 SCS Correlation Energy    =      -0.1054879821835761 [Eh]
	 SCS Total Energy          =     -39.5230457355011495 [Eh]
	-----------------------------------------------------------

  -Total Gradient:
     Atom            X                  Y                   Z
    ------   -----------------  -----------------  -----------------
       1       -0.000000000005    -0.030401082494    -0.000000000003
       2        0.022036913908     0.010133694167    -0.038169054544
       3        0.022036913909     0.010133694165     0.038169054547
       4       -0.044073827812     0.010133694162     0.000000000001

*** Psi4 exiting successfully. Buy a developer a beer!
