                               Psi4 1.2a1.dev429

  ==> Input File <==

--------------------------------------------------------------------------
# density-fitted hartree fock energies and gradients with 6-31g
molecule h20 {
0 1
O 0.0000000000 0.0000000000 0.0000000000
H 0.0000000000 0.0000000000 1.1000000000
H 0.0000000000 0.7878462024 -0.1389185421
}

set basis 6-31g

gradient('hf')
--------------------------------------------------------------------------

    Molecular point group: cs
  Charge       = 0
  Multiplicity = 1
  Basis Set: 6-31G
    Blend: 6-31G
  Basis Set: (6-31G AUX)
    Blend: CC-PVDZ-JKFIT

    Orbital Energies (a.u.)
    -----------------------

    Doubly Occupied:

       1Ap   -20.560768     2Ap    -1.390337     3Ap    -0.711255
       4Ap    -0.564273     1App   -0.506075

  @DF-RHF Final Energy:   -75.92960465212781

   => Energetics <=

    Nuclear Repulsion Energy =              9.5007586378037381
    One-Electron Energy =                -123.3953088355517309
    Two-Electron Energy =                  37.9649455456201750
    Total Energy =                        -75.9296046521278072
    Molecular point group: cs

    Geometry (in Angstrom), charge = 0, multiplicity = 1:

       Center              X                  Y                   Z               Mass
    ------------   -----------------  -----------------  -----------------  -----------------
           O          0.044085853950     0.053779654783     0.000000000000    15.994914619560
           H          0.044085853950    -1.046220345217     0.000000000000     1.007825032070
           H         -0.743760348450     0.192698196883     0.000000000000     1.007825032070

  Basis Set: 6-31G
    Blend: 6-31G
  Basis Set: (6-31G AUX)
    Blend: CC-PVDZ-JKFIT

  -Total Gradient:
     Atom            X                  Y                   Z
    ------   -----------------  -----------------  -----------------
       1       -0.276022072054     0.171141148769     0.000000000000
       2       -0.016959585288    -0.095801407478     0.000000000000
       3        0.292981657342    -0.075339741290     0.000000000000

*** Psi4 exiting successfully. Buy a developer a beer!
