                               Psi4 1.2a1.dev429

  ==> Input File <==

--------------------------------------------------------------------------
# density-fitted hartree fock energies and gradients with 6-31g
molecule h20 {
0 1
O 0.0000000000 0.0000000000 0.0000000000
H 0.0000000000 0.0000000000 1.1000000000
H 0.0000000000 1.4000000000 0.0000000000
}

set basis 6-31g

gradient('hf')
--------------------------------------------------------------------------

    Molecular point group: cs
  Charge       = 0
  Multiplicity = 1
  Basis Set: 6-31G
    Blend: 6-31G
  Basis Set: (6-31G AUX)
    Blend: CC-PVDZ-JKFIT

    Orbital Energies (a.u.)
    -----------------------

    Doubly Occupied:

       1Ap   -20.622667     2Ap    -1.272949     3Ap    -0.591398
       4Ap    -0.517672     1App   -0.505592

  @DF-RHF Final Energy:   -75.88054656142253

   => Energetics <=

    Nuclear Repulsion Energy =              7.1696468115333074
    One-Electron Energy =                -119.0798308722432921
    Two-Electron Energy =                  36.0296374992874462
    Total Energy =                        -75.8805465614225341
    Molecular point group: cs

    Geometry (in Angstrom), charge = 0, multiplicity = 1:

       Center              X                  Y                   Z               Mass
    ------------   -----------------  -----------------  -----------------  -----------------
           O          0.078340411291     0.061553180300     0.000000000000    15.994914619560
           H          0.078340411291    -1.038446819700     0.000000000000     1.007825032070
           H         -1.321659588709     0.061553180300     0.000000000000     1.007825032070

  Basis Set: 6-31G
    Blend: 6-31G
  Basis Set: (6-31G AUX)
    Blend: CC-PVDZ-JKFIT

  -Total Gradient:
     Atom            X                  Y                   Z
    ------   -----------------  -----------------  -----------------
       1        0.138610312051     0.100337577336     0.000000000000
       2       -0.013574874030    -0.089671607856     0.000000000000
       3       -0.125035438021    -0.010665969480     0.000000000000

*** Psi4 exiting successfully. Buy a developer a beer!
