                               Psi4 1.2a1.dev429

  ==> Input File <==

--------------------------------------------------------------------------
# density-fitted hartree fock energies and gradients with 6-31g
molecule o2 {
0 3
O 0.0000000000 0.0000000000 0.0000000000
O 0.0000000000 0.0000000000 0.8142857143
}

set basis 6-31g
set reference rohf

energy('scf')
--------------------------------------------------------------------------

    Molecular point group: d2h

    Geometry (in Angstrom), charge = 0, multiplicity = 3:

       Center              X                  Y                   Z               Mass
    ------------   -----------------  -----------------  -----------------  -----------------
           O          0.000000000000     0.000000000000    -0.407142857150    15.994914619560
           O          0.000000000000     0.000000000000     0.407142857150    15.994914619560

  Charge       = 0
  Multiplicity = 3
  Basis Set: 6-31G
    Blend: 6-31G
  Basis Set: (6-31G AUX)
    Blend: CC-PVDZ-JKFIT

    Orbital Energies (a.u.)
    -----------------------

    Doubly Occupied:

       1Ag   -20.722899     1B1u  -20.710159     2Ag    -2.215173
       1B2u   -0.993587     1B3u   -0.993587     2B1u   -0.946800
       3Ag    -0.837837

    Singly Occupied:

       1B2g    0.018498     1B3g    0.018498

  @DF-ROHF Final Energy:  -148.82713559386531

   => Energetics <=

    Nuclear Repulsion Energy =             41.5914718323089261
    One-Electron Energy =                -285.3809282431475367
    Two-Electron Energy =                  94.9623208169733317
    Total Energy =                       -148.8271355938653073
*** Psi4 exiting successfully. Buy a developer a beer!
