                               Psi4 1.2a1.dev429

  ==> Input File <==

--------------------------------------------------------------------------
# density-fitted hartree fock energies and gradients with 6-31g
molecule o2 {
0 3
O 0.0000000000 0.0000000000 0.0000000000
O 0.0000000000 0.0000000000 0.8070707071
}

set basis 6-31g
set reference rohf

gradient('scf')
--------------------------------------------------------------------------

    Molecular point group: d2h
  Charge       = 0
  Multiplicity = 3
  Basis Set: 6-31G
    Blend: 6-31G
  Basis Set: (6-31G AUX)
    Blend: CC-PVDZ-JKFIT

    Orbital Energies (a.u.)
    -----------------------

    Doubly Occupied:

       1Ag   -20.725748     1B1u  -20.712042     2Ag    -2.226348
       1B2u   -1.002381     1B3u   -1.002381     2B1u   -0.944260
       3Ag    -0.840310

    Singly Occupied:

       1B3g    0.024890     1B2g    0.024890

  @DF-ROHF Final Energy:  -148.78314030447658

   => Energetics <=

    Nuclear Repulsion Energy =             41.9632890300944439
    One-Electron Energy =                -285.9835770605717471
    Two-Electron Energy =                  95.2371477260007282
    Total Energy =                       -148.7831403044765750
    Molecular point group: d2h

    Geometry (in Angstrom), charge = 0, multiplicity = 3:

       Center              X                  Y                   Z               Mass
    ------------   -----------------  -----------------  -----------------  -----------------
           O          0.000000000000     0.000000000000    -0.403535353550    15.994914619560
           O          0.000000000000     0.000000000000     0.403535353550    15.994914619560

  Basis Set: 6-31G
    Blend: 6-31G
  Basis Set: (6-31G AUX)
    Blend: CC-PVDZ-JKFIT

  -Total Gradient:
     Atom            X                  Y                   Z
    ------   -----------------  -----------------  -----------------
       1        0.000000000000    -0.000000000000     3.308653193162
       2       -0.000000000000     0.000000000000    -3.308653193162

*** Psi4 exiting successfully. Buy a developer a beer!
