                               Psi4 1.2a1.dev429

  ==> Input File <==

--------------------------------------------------------------------------
# density-fitted hartree fock energies and gradients with 6-31g
molecule h20 {
0 1
O 0.0000000000 0.0000000000 0.0000000000
O 0.0000000000 0.0000000000 0.8070707071
}

set basis 6-31g

gradient('hf')
--------------------------------------------------------------------------

    Molecular point group: d2h
  Charge       = 0
  Multiplicity = 1
  Basis Set: 6-31G
    Blend: 6-31G
  Basis Set: (6-31G AUX)
    Blend: CC-PVDZ-JKFIT

    Orbital Energies (a.u.)
    -----------------------

    Doubly Occupied:

       1Ag   -20.739573     1B1u  -20.725831     2Ag    -2.235957
       1B2u   -1.047682     1B3u   -0.970480     2B1u   -0.950026
       3Ag    -0.846609     1B3g   -0.234321

  @DF-RHF Final Energy:  -148.71433223332562

   => Energetics <=

    Nuclear Repulsion Energy =             41.9632890300944439
    One-Electron Energy =                -285.8542852090436099
    Two-Electron Energy =                  95.1766639456235595
    Total Energy =                       -148.7143322333255924
    Molecular point group: d2h

    Geometry (in Angstrom), charge = 0, multiplicity = 1:

       Center              X                  Y                   Z               Mass
    ------------   -----------------  -----------------  -----------------  -----------------
           O          0.000000000000     0.000000000000    -0.403535353550    15.994914619560
           O          0.000000000000     0.000000000000     0.403535353550    15.994914619560

  Basis Set: 6-31G
    Blend: 6-31G
  Basis Set: (6-31G AUX)
    Blend: CC-PVDZ-JKFIT

  -Total Gradient:
     Atom            X                  Y                   Z
    ------   -----------------  -----------------  -----------------
       1        0.000000000000    -0.000000000000     3.299744467513
       2        0.000000000000     0.000000000000    -3.299744467513

*** Psi4 exiting successfully. Buy a developer a beer!
