                               Psi4 1.2a1.dev429

  ==> Input File <==

--------------------------------------------------------------------------
# density-fitted hartree fock energies and gradients with 6-31g
molecule h2o {
0 1
O 0.0000000000 0.0000000000 0.0000000000
H 0.0000000000 0.0000000000 1.3000000000
H 0.0000000000 1.1490666647 -0.9641814145
}

set basis 6-31g

gradient('mp2')
--------------------------------------------------------------------------

    Molecular point group: cs
  Charge       = 0
  Multiplicity = 1
  Basis Set: 6-31G
    Blend: 6-31G
  Basis Set: (6-31G AUX)
    Blend: CC-PVDZ-JKFIT

    Orbital Energies (a.u.)
    -----------------------

    Doubly Occupied:

       1Ap   -20.605138     2Ap    -1.208260     3Ap    -0.544721
       1App   -0.478187     4Ap    -0.455435

  @DF-RHF Final Energy:   -75.79463239799883

   => Energetics <=

    Nuclear Repulsion Energy =              6.2871674456670661
    One-Electron Energy =                -117.5801194966670664
    Two-Electron Energy =                  35.4983196530011753
    Total Energy =                        -75.7946323979988250
  Basis Set: (6-31G AUX)
    Blend: CC-PVDZ-RI
    Molecular point group: cs

    Geometry (in Angstrom), charge = 0, multiplicity = 1:

       Center              X                  Y                   Z               Mass
    ------------   -----------------  -----------------  -----------------  -----------------
           O          0.064298825081     0.018791547219     0.000000000000    15.994914619560
           H          0.064298825081    -1.281208452781     0.000000000000     1.007825032070
           H         -1.084767839619     0.982972961719     0.000000000000     1.007825032070

  Basis Set: 6-31G
    Blend: 6-31G
  Basis Set: (6-31G AUX)
    Blend: CC-PVDZ-JKFIT
  Basis Set: (6-31G AUX)
    Blend: CC-PVDZ-JKFIT
	 Reference Energy          =     -75.7946323979988250 [Eh]
	 Singles Energy            =      -0.0000000000000000 [Eh]
	 Same-Spin Energy          =      -0.0375008734865949 [Eh]
	 Opposite-Spin Energy      =      -0.1308712245969845 [Eh]
	 Correlation Energy        =      -0.1683720980835794 [Eh]
	 Total Energy              =     -75.9630044960824051 [Eh]

	 ================> DF-SCS-MP2 Energies <==================
	-----------------------------------------------------------
	 SCS Same-Spin Scale       =       0.3333333333333333 [-]
	 SCS Opposite-Spin Scale   =       1.2000000000000000 [-]
	 SCS Same-Spin Energy      =      -0.0125002911621983 [Eh]
	 SCS Opposite-Spin Energy  =      -0.1570454695163813 [Eh]
	 SCS Correlation Energy    =      -0.1695457606785797 [Eh]
	 SCS Total Energy          =     -75.9641781586773988 [Eh]
	-----------------------------------------------------------

  -Total Gradient:
     Atom            X                  Y                   Z
    ------   -----------------  -----------------  -----------------
       1        0.024443019891     0.016742247835    -0.000000000000
       2        0.031641302898    -0.099600063168     0.000000000000
       3       -0.056084322790     0.082857815333     0.000000000000

*** Psi4 exiting successfully. Buy a developer a beer!
