                               Psi4 1.2.1 release

  ==> Input File <==

--------------------------------------------------------------------------
# density fitted hartree fock
molecule h2o {
0 1
H 0.0000000000 0.0000000000 0.9375000000
H 0.0000000000 0.9294795575 -0.1223683052
O 0.0000000000 0.0000000000 0.0000000000
}

set basis 6-31g
energy('hf')

--------------------------------------------------------------------------

    Molecular point group: c2v

    Geometry (in Angstrom), charge = 0, multiplicity = 1:

       Center              X                  Y                   Z               Mass
    ------------   -----------------  -----------------  -----------------  -----------------
         H            0.000000000000    -0.704849819497     0.548958011015     1.007825032070
         H           -0.000000000000     0.704849819497     0.548958011015     1.007825032070
         O           -0.000000000000     0.000000000000    -0.069178690629    15.994914619560

  Charge       = 0
  Multiplicity = 1
  Basis Set: 6-31G
    Blend: 6-31G
  Basis Set: (6-31G AUX)
    Blend: CC-PVDZ-JKFIT

    Orbital Energies [Eh]
    ---------------------

    Doubly Occupied:

       1A1   -20.561249     2A1    -1.375747     1B2    -0.707789
       3A1    -0.577355     1B1    -0.505735

  @DF-RHF Final Energy:   -75.97878098702999

   => Energetics <=

    Nuclear Repulsion Energy =              9.4066739764265961
    One-Electron Energy =                -123.3151578262734063
    Two-Electron Energy =                  37.9297028628168249
    Total Energy =                        -75.9787809870299924

  Dipole Moment: [D]
     X:    -0.0000      Y:     0.0000      Z:     2.7359     Total:     2.7359

*** Psi4 exiting successfully. Buy a developer a beer!
