                               Psi4 1.2a1.dev429

  ==> Input File <==

--------------------------------------------------------------------------
# density-fitted hartree fock energies and gradients with 6-31g
molecule h2o {
0 1
O 0.0000000000 0.0000000000 0.0000000000
H 0.0000000000 0.0000000000 1.2000000000
H 0.0000000000 0.7517540966 -0.2736161147
}

set basis 6-31g

gradient('mp2')
--------------------------------------------------------------------------

    Molecular point group: cs
  Charge       = 0
  Multiplicity = 1
  Basis Set: 6-31G
    Blend: 6-31G
  Basis Set: (6-31G AUX)
    Blend: CC-PVDZ-JKFIT

    Orbital Energies (a.u.)
    -----------------------

    Doubly Occupied:

       1Ap   -20.560323     2Ap    -1.367747     3Ap    -0.703678
       4Ap    -0.534993     1App   -0.499195

  @DF-RHF Final Energy:   -75.91032486807781

   => Energetics <=

    Nuclear Repulsion Energy =              9.1395017192350814
    One-Electron Energy =                -122.7677802753759693
    Two-Electron Energy =                  37.7179536880630835
    Total Energy =                        -75.9103248680777938
  Basis Set: (6-31G AUX)
    Blend: CC-PVDZ-RI
    Molecular point group: cs

    Geometry (in Angstrom), charge = 0, multiplicity = 1:

       Center              X                  Y                   Z               Mass
    ------------   -----------------  -----------------  -----------------  -----------------
           O          0.042066232226     0.051838067562     0.000000000000    15.994914619560
           H          0.042066232226    -1.148161932438     0.000000000000     1.007825032070
           H         -0.709687864374     0.325454182262     0.000000000000     1.007825032070

  Basis Set: 6-31G
    Blend: 6-31G
  Basis Set: (6-31G AUX)
    Blend: CC-PVDZ-JKFIT
  Basis Set: (6-31G AUX)
    Blend: CC-PVDZ-JKFIT
	 Reference Energy          =     -75.9103248680778080 [Eh]
	 Singles Energy            =      -0.0000000000000000 [Eh]
	 Same-Spin Energy          =      -0.0303226404028435 [Eh]
	 Opposite-Spin Energy      =      -0.1006371750638836 [Eh]
	 Correlation Energy        =      -0.1309598154667271 [Eh]
	 Total Energy              =     -76.0412846835445322 [Eh]

	 ================> DF-SCS-MP2 Energies <==================
	-----------------------------------------------------------
	 SCS Same-Spin Scale       =       0.3333333333333333 [-]
	 SCS Opposite-Spin Scale   =       1.2000000000000000 [-]
	 SCS Same-Spin Energy      =      -0.0101075468009478 [Eh]
	 SCS Opposite-Spin Energy  =      -0.1207646100766603 [Eh]
	 SCS Correlation Energy    =      -0.1308721568776082 [Eh]
	 SCS Total Energy          =     -76.0411970249554230 [Eh]
	-----------------------------------------------------------

  -Total Gradient:
     Atom            X                  Y                   Z
    ------   -----------------  -----------------  -----------------
       1       -0.312603641052     0.214011780030     0.000000000000
       2        0.004095842716    -0.108262183119    -0.000000000000
       3        0.308507798336    -0.105749596912    -0.000000000000

*** Psi4 exiting successfully. Buy a developer a beer!
