                               Psi4 1.2a1.dev429

  ==> Input File <==

--------------------------------------------------------------------------
# density-fitted hartree fock energies and gradients with 6-31g
molecule h20 {
0 1
O 0.0000000000 0.0000000000 0.0000000000
H 0.0000000000 0.0000000000 1.4000000000
H 0.0000000000 0.6928203230 -0.4000000000
}

set basis 6-31g

gradient('hf')
--------------------------------------------------------------------------

    Molecular point group: cs
  Charge       = 0
  Multiplicity = 1
  Basis Set: 6-31G
    Blend: 6-31G
  Basis Set: (6-31G AUX)
    Blend: CC-PVDZ-JKFIT

    Orbital Energies (a.u.)
    -----------------------

    Doubly Occupied:

       1Ap   -20.560948     2Ap    -1.345484     3Ap    -0.676861
       4Ap    -0.493804     1App   -0.490217

  @DF-RHF Final Energy:   -75.85341726549920

   => Energetics <=

    Nuclear Repulsion Energy =              8.5900074510607194
    One-Electron Energy =                -121.7522217600442787
    Two-Electron Energy =                  37.3087970434843612
    Total Energy =                        -75.8534172654992034
    Molecular point group: cs

    Geometry (in Angstrom), charge = 0, multiplicity = 1:

       Center              X                  Y                   Z               Mass
    ------------   -----------------  -----------------  -----------------  -----------------
           O          0.038768449325     0.055957436636     0.000000000000    15.994914619560
           H          0.038768449325    -1.344042563364     0.000000000000     1.007825032070
           H         -0.654051873675     0.455957436636     0.000000000000     1.007825032070

  Basis Set: 6-31G
    Blend: 6-31G
  Basis Set: (6-31G AUX)
    Blend: CC-PVDZ-JKFIT

  -Total Gradient:
     Atom            X                  Y                   Z
    ------   -----------------  -----------------  -----------------
       1       -0.290355526345     0.266902110975     0.000000000000
       2        0.016155343298    -0.141238080212     0.000000000000
       3        0.274200183046    -0.125664030763     0.000000000000

*** Psi4 exiting successfully. Buy a developer a beer!
