                               Psi4 1.2.1 release

  ==> Input File <==

--------------------------------------------------------------------------
# density fitted hartree fock
molecule h2o {
0 1
H 0.0000000000 0.0000000000 1.2000000000
H 0.0000000000 1.1591109915 -0.3105828541
O 0.0000000000 0.0000000000 0.0000000000
}

set basis 6-31g
energy('hf')

--------------------------------------------------------------------------

    Molecular point group: c2v

    Geometry (in Angstrom), charge = 0, multiplicity = 1:

       Center              X                  Y                   Z               Mass
    ------------   -----------------  -----------------  -----------------  -----------------
         H            0.000000000000    -0.952024008326     0.648758364983     1.007825032070
         H           -0.000000000000     0.952024008326     0.648758364983     1.007825032070
         O           -0.000000000000     0.000000000000    -0.081755349815    15.994914619560

  Charge       = 0
  Multiplicity = 1
  Basis Set: 6-31G
    Blend: 6-31G
  Basis Set: (6-31G AUX)
    Blend: CC-PVDZ-JKFIT

    Orbital Energies [Eh]
    ---------------------

    Doubly Occupied:

       1A1   -20.605345     2A1    -1.262763     1B2    -0.597195
       3A1    -0.523270     1B1    -0.495311

  @DF-RHF Final Energy:   -75.91057644690022

   => Energetics <=

    Nuclear Repulsion Energy =              7.3336183120035869
    One-Electron Energy =                -119.5206156425713715
    Two-Electron Energy =                  36.2764208836675479
    Total Energy =                        -75.9105764469002224

  Dipole Moment: [D]
     X:    -0.0000      Y:     0.0000      Z:     2.6253     Total:     2.6253

*** Psi4 exiting successfully. Buy a developer a beer!
