                               Psi4 1.2a1.dev429

  ==> Input File <==

--------------------------------------------------------------------------
# density-fitted hartree fock energies and gradients with 6-31g
molecule h2o {
0 1
O 0.0000000000 0.0000000000 0.0000000000
H 0.0000000000 0.0000000000 1.0000000000
H 0.0000000000 0.3078181290 -0.8457233587
}

set basis 6-31g

gradient('mp2')
--------------------------------------------------------------------------

    Molecular point group: cs
  Charge       = 0
  Multiplicity = 1
  Basis Set: 6-31G
    Blend: 6-31G
  Basis Set: (6-31G AUX)
    Blend: CC-PVDZ-JKFIT

    Orbital Energies (a.u.)
    -----------------------

    Doubly Occupied:

       1Ap   -20.510858     2Ap    -1.306224     3Ap    -0.768810
       4Ap    -0.475248     1App   -0.471523

  @DF-RHF Final Energy:   -75.94546750013413

   => Energetics <=

    Nuclear Repulsion Energy =              9.2200137532812647
    One-Electron Energy =                -123.2656361005936105
    Two-Electron Energy =                  38.1001548471782172
    Total Energy =                        -75.9454675001341286
  Basis Set: (6-31G AUX)
    Blend: CC-PVDZ-RI
    Molecular point group: cs

    Geometry (in Angstrom), charge = 0, multiplicity = 1:

       Center              X                  Y                   Z               Mass
    ------------   -----------------  -----------------  -----------------  -----------------
           O          0.017224713449     0.008632925380     0.000000000000    15.994914619560
           H          0.017224713449    -0.991367074620     0.000000000000     1.007825032070
           H         -0.290593415551     0.854356284080     0.000000000000     1.007825032070

  Basis Set: 6-31G
    Blend: 6-31G
  Basis Set: (6-31G AUX)
    Blend: CC-PVDZ-JKFIT
  Basis Set: (6-31G AUX)
    Blend: CC-PVDZ-JKFIT
	 Reference Energy          =     -75.9454675001341286 [Eh]
	 Singles Energy            =      -0.0000000000000000 [Eh]
	 Same-Spin Energy          =      -0.0302727594482829 [Eh]
	 Opposite-Spin Energy      =      -0.0950846454610806 [Eh]
	 Correlation Energy        =      -0.1253574049093635 [Eh]
	 Total Energy              =     -76.0708249050434944 [Eh]

	 ================> DF-SCS-MP2 Energies <==================
	-----------------------------------------------------------
	 SCS Same-Spin Scale       =       0.3333333333333333 [-]
	 SCS Opposite-Spin Scale   =       1.2000000000000000 [-]
	 SCS Same-Spin Energy      =      -0.0100909198160943 [Eh]
	 SCS Opposite-Spin Energy  =      -0.1141015745532967 [Eh]
	 SCS Correlation Energy    =      -0.1241924943693910 [Eh]
	 SCS Total Energy          =     -76.0696599945035246 [Eh]
	-----------------------------------------------------------

  -Total Gradient:
     Atom            X                  Y                   Z
    ------   -----------------  -----------------  -----------------
       1       -0.071373661395     0.107187271338     0.000000000000
       2        0.024427754452    -0.057562204965    -0.000000000000
       3        0.046945906942    -0.049625066373    -0.000000000000

*** Psi4 exiting successfully. Buy a developer a beer!
