                               Psi4 1.2a1.dev429

  ==> Input File <==

--------------------------------------------------------------------------
# density-fitted hartree fock energies and gradients with 6-31g
molecule h20 {
0 1
O 0.0000000000 0.0000000000 0.0000000000
H 0.0000000000 0.0000000000 1.0000000000
H 0.0000000000 0.1562833599 -0.8863269777
}

set basis 6-31g

gradient('hf')
--------------------------------------------------------------------------

    Molecular point group: cs
  Charge       = 0
  Multiplicity = 1
  Basis Set: 6-31G
    Blend: 6-31G
  Basis Set: (6-31G AUX)
    Blend: CC-PVDZ-JKFIT

    Orbital Energies (a.u.)
    -----------------------

    Doubly Occupied:

       1Ap   -20.505530     2Ap    -1.300535     3Ap    -0.770857
       4Ap    -0.468977     1App   -0.468087

  @DF-RHF Final Energy:   -75.93962015584573

   => Energetics <=

    Nuclear Repulsion Energy =              9.2167903143402192
    One-Electron Energy =                -123.2848491457150573
    Two-Electron Energy =                  38.1284386755291180
    Total Energy =                        -75.9396201558457165
    Molecular point group: cs

    Geometry (in Angstrom), charge = 0, multiplicity = 1:

       Center              X                  Y                   Z               Mass
    ------------   -----------------  -----------------  -----------------  -----------------
           O          0.008745216209     0.006360850943     0.000000000000    15.994914619560
           H          0.008745216209    -0.993639149057     0.000000000000     1.007825032070
           H         -0.147538143691     0.892687828643     0.000000000000     1.007825032070

  Basis Set: 6-31G
    Blend: 6-31G
  Basis Set: (6-31G AUX)
    Blend: CC-PVDZ-JKFIT

  -Total Gradient:
     Atom            X                  Y                   Z
    ------   -----------------  -----------------  -----------------
       1       -0.033213238234     0.117171328240     0.000000000000
       2        0.012421758244    -0.078739269325     0.000000000000
       3        0.020791479991    -0.038432058915     0.000000000000

*** Psi4 exiting successfully. Buy a developer a beer!
