                               Psi4 1.3.1 release

  ==> Input File <==

--------------------------------------------------------------------------
# density fitted hartree fock
molecule h2o {
0 1
H 0.0000000000 0.0000000000 1.2000000000
H 0.0000000000 0.8660254038 -0.5000000000
O 0.0000000000 0.0000000000 0.0000000000
}

set basis 6-31g
energy('hf')

--------------------------------------------------------------------------

    Molecular point group: cs

    Geometry (in Angstrom), charge = 0, multiplicity = 1:

       Center              X                  Y                   Z               Mass
    ------------   -----------------  -----------------  -----------------  -----------------
         H            0.048460561665    -1.160829794349     0.000000000000     1.007825032230
         H           -0.817564842135     0.539170205651     0.000000000000     1.007825032230
         O            0.048460561665     0.039170205651     0.000000000000    15.994914619570

  Charge       = 0
  Multiplicity = 1
  Basis Set: 6-31G
    Blend: 6-31G
  Basis Set: (6-31G AUX)
    Blend: CC-PVDZ-JKFIT

    Orbital Energies [Eh]
    ---------------------

    Doubly Occupied:

       1Ap   -20.571115     2Ap    -1.285719     3Ap    -0.657239
       4Ap    -0.508845     1App   -0.486187

  @DF-RHF Final Energy:   -75.93952977843117

   => Energetics <=

    Nuclear Repulsion Energy =              8.0386299793773350
    One-Electron Energy =                -120.9380940535842512
    Two-Electron Energy =                  36.9599342957757599
    Total Energy =                        -75.9395297784311651

  Dipole Moment: [D]
     X:    -1.9778      Y:    -1.2962      Z:     0.0000     Total:     2.3646

*** Psi4 exiting successfully. Buy a developer a beer!
