                               Psi4 1.2a1.dev429

  ==> Input File <==

--------------------------------------------------------------------------
# density-fitted hartree fock energies and gradients with 6-31g
molecule h20 {
0 1
O 0.0000000000 0.0000000000 0.0000000000
H 0.0000000000 0.0000000000 1.3000000000
H 0.0000000000 0.6928203230 -0.4000000000
}

set basis 6-31g

gradient('hf')
--------------------------------------------------------------------------

    Molecular point group: cs
  Charge       = 0
  Multiplicity = 1
  Basis Set: 6-31G
    Blend: 6-31G
  Basis Set: (6-31G AUX)
    Blend: CC-PVDZ-JKFIT

    Orbital Energies (a.u.)
    -----------------------

    Doubly Occupied:

       1Ap   -20.556132     2Ap    -1.349899     3Ap    -0.692328
       4Ap    -0.506917     1App   -0.491053

  @DF-RHF Final Energy:   -75.88034024228783

   => Energetics <=

    Nuclear Repulsion Energy =              8.8365084094758846
    One-Electron Energy =                -122.2410391646402275
    Two-Electron Energy =                  37.5241905128765154
    Total Energy =                        -75.8803402422878293
    Molecular point group: cs

    Geometry (in Angstrom), charge = 0, multiplicity = 1:

       Center              X                  Y                   Z               Mass
    ------------   -----------------  -----------------  -----------------  -----------------
           O          0.038768449325     0.050361692973     0.000000000000    15.994914619560
           H          0.038768449325    -1.249638307027     0.000000000000     1.007825032070
           H         -0.654051873675     0.450361692973     0.000000000000     1.007825032070

  Basis Set: 6-31G
    Blend: 6-31G
  Basis Set: (6-31G AUX)
    Blend: CC-PVDZ-JKFIT

  -Total Gradient:
     Atom            X                  Y                   Z
    ------   -----------------  -----------------  -----------------
       1       -0.286274570574     0.269677172486     0.000000000000
       2        0.015618281559    -0.142719653549     0.000000000000
       3        0.270656289015    -0.126957518937     0.000000000000

*** Psi4 exiting successfully. Buy a developer a beer!
