                               Psi4 1.2a1.dev429

  ==> Input File <==

--------------------------------------------------------------------------
# density-fitted hartree fock energies and gradients with 6-31g
molecule h2o {
0 1
O 0.0000000000 0.0000000000 0.0000000000
H 0.0000000000 0.0000000000 1.2000000000
H 0.0000000000 0.9192533317 -0.7713451316
}

set basis 6-31g

gradient('mp2')
--------------------------------------------------------------------------

    Molecular point group: c2v
  Charge       = 0
  Multiplicity = 1
  Basis Set: 6-31G
    Blend: 6-31G
  Basis Set: (6-31G AUX)
    Blend: CC-PVDZ-JKFIT

    Orbital Energies (a.u.)
    -----------------------

    Doubly Occupied:

       1A1   -20.576283     2A1    -1.238917     1B2    -0.613227
       3A1    -0.481101     1B1    -0.475047

  @DF-RHF Final Energy:   -75.89343143386287

   => Energetics <=

    Nuclear Repulsion Energy =              7.2989804676693391
    One-Electron Energy =                -119.6156757476783099
    Two-Electron Energy =                  36.4232638461460994
    Total Energy =                        -75.8934314338628724
  Basis Set: (6-31G AUX)
    Blend: CC-PVDZ-RI
    Molecular point group: c2v

    Geometry (in Angstrom), charge = 0, multiplicity = 1:

       Center              X                  Y                   Z               Mass
    ------------   -----------------  -----------------  -----------------  -----------------
           O         -0.000000000000     0.000000000000    -0.056756723045    15.994914619560
           H          0.000000000000    -1.087569344424     0.450385191030     1.007825032070
           H         -0.000000000000     1.087569344424     0.450385191030     1.007825032070

  Basis Set: 6-31G
    Blend: 6-31G
  Basis Set: (6-31G AUX)
    Blend: CC-PVDZ-JKFIT
  Basis Set: (6-31G AUX)
    Blend: CC-PVDZ-JKFIT
	 Reference Energy          =     -75.8934314338628724 [Eh]
	 Singles Energy            =      -0.0000000000000000 [Eh]
	 Same-Spin Energy          =      -0.0344215319794429 [Eh]
	 Opposite-Spin Energy      =      -0.1137241775740068 [Eh]
	 Correlation Energy        =      -0.1481457095534497 [Eh]
	 Total Energy              =     -76.0415771434163190 [Eh]

	 ================> DF-SCS-MP2 Energies <==================
	-----------------------------------------------------------
	 SCS Same-Spin Scale       =       0.3333333333333333 [-]
	 SCS Opposite-Spin Scale   =       1.2000000000000000 [-]
	 SCS Same-Spin Energy      =      -0.0114738439931476 [Eh]
	 SCS Opposite-Spin Energy  =      -0.1364690130888081 [Eh]
	 SCS Correlation Energy    =      -0.1479428570819558 [Eh]
	 SCS Total Energy          =     -76.0413742909448302 [Eh]
	-----------------------------------------------------------

  -Total Gradient:
     Atom            X                  Y                   Z
    ------   -----------------  -----------------  -----------------
       1        0.000000000000     0.000000000001    -0.029559933737
       2        0.000000000000    -0.107314310271     0.014779966868
       3       -0.000000000000     0.107314310270     0.014779966868

*** Psi4 exiting successfully. Buy a developer a beer!
