                               Psi4 1.2a1.dev429

  ==> Input File <==

--------------------------------------------------------------------------
# density-fitted hartree fock energies and gradients with 6-31g
molecule h2o {
0 1
O 0.0000000000 0.0000000000 0.0000000000
H 0.0000000000 0.0000000000 1.1000000000
H 0.0000000000 0.7517540966 -0.2736161147
}

set basis 6-31g

gradient('mp2')
--------------------------------------------------------------------------

    Molecular point group: cs
  Charge       = 0
  Multiplicity = 1
  Basis Set: 6-31G
    Blend: 6-31G
  Basis Set: (6-31G AUX)
    Blend: CC-PVDZ-JKFIT

    Orbital Energies (a.u.)
    -----------------------

    Doubly Occupied:

       1Ap   -20.553021     2Ap    -1.378820     3Ap    -0.726292
       4Ap    -0.546837     1App   -0.500903

  @DF-RHF Final Energy:   -75.93276060964966

   => Energetics <=

    Nuclear Repulsion Energy =              9.4782776832204085
    One-Electron Energy =                -123.4103283246818847
    Two-Electron Energy =                  37.9992900318118174
    Total Energy =                        -75.9327606096496481
  Basis Set: (6-31G AUX)
    Blend: CC-PVDZ-RI
    Molecular point group: cs

    Geometry (in Angstrom), charge = 0, multiplicity = 1:

       Center              X                  Y                   Z               Mass
    ------------   -----------------  -----------------  -----------------  -----------------
           O          0.042066232226     0.046242323899     0.000000000000    15.994914619560
           H          0.042066232226    -1.053757676101     0.000000000000     1.007825032070
           H         -0.709687864374     0.319858438599     0.000000000000     1.007825032070

  Basis Set: 6-31G
    Blend: 6-31G
  Basis Set: (6-31G AUX)
    Blend: CC-PVDZ-JKFIT
  Basis Set: (6-31G AUX)
    Blend: CC-PVDZ-JKFIT
	 Reference Energy          =     -75.9327606096496623 [Eh]
	 Singles Energy            =      -0.0000000000000000 [Eh]
	 Same-Spin Energy          =      -0.0296391919161959 [Eh]
	 Opposite-Spin Energy      =      -0.0973652631375382 [Eh]
	 Correlation Energy        =      -0.1270044550537341 [Eh]
	 Total Energy              =     -76.0597650647033987 [Eh]

	 ================> DF-SCS-MP2 Energies <==================
	-----------------------------------------------------------
	 SCS Same-Spin Scale       =       0.3333333333333333 [-]
	 SCS Opposite-Spin Scale   =       1.2000000000000000 [-]
	 SCS Same-Spin Energy      =      -0.0098797306387320 [Eh]
	 SCS Opposite-Spin Energy  =      -0.1168383157650459 [Eh]
	 SCS Correlation Energy    =      -0.1267180464037778 [Eh]
	 SCS Total Energy          =     -76.0594786560534430 [Eh]
	-----------------------------------------------------------

  -Total Gradient:
     Atom            X                  Y                   Z
    ------   -----------------  -----------------  -----------------
       1       -0.304060101040     0.193802267897     0.000000000000
       2        0.000234596962    -0.083562101703    -0.000000000000
       3        0.303825504078    -0.110240166195     0.000000000000

*** Psi4 exiting successfully. Buy a developer a beer!
