                               Psi4 1.2a1.dev429

  ==> Input File <==

--------------------------------------------------------------------------
# density-fitted hartree fock energies and gradients with 6-31g
molecule h2o {
0 1
O 0.0000000000 0.0000000000 0.0000000000
H 0.0000000000 0.0000000000 0.8000000000
H 0.0000000000 1.2000000000 0.0000000000
}

set basis 6-31g

gradient('mp2')
--------------------------------------------------------------------------

    Molecular point group: cs
  Charge       = 0
  Multiplicity = 1
  Basis Set: 6-31G
    Blend: 6-31G
  Basis Set: (6-31G AUX)
    Blend: CC-PVDZ-JKFIT

    Orbital Energies (a.u.)
    -----------------------

    Doubly Occupied:

       1Ap   -20.576185     2Ap    -1.389426     3Ap    -0.681627
       4Ap    -0.563869     1App   -0.510333

  @DF-RHF Final Energy:   -75.90124897156281

   => Energetics <=

    Nuclear Repulsion Energy =              9.1865385199701564
    One-Electron Energy =                -122.7326963234947073
    Two-Electron Energy =                  37.6449088319617431
    Total Energy =                        -75.9012489715628078
  Basis Set: (6-31G AUX)
    Blend: CC-PVDZ-RI
    Molecular point group: cs

    Geometry (in Angstrom), charge = 0, multiplicity = 1:

       Center              X                  Y                   Z               Mass
    ------------   -----------------  -----------------  -----------------  -----------------
           O          0.067148923963     0.044765949309     0.000000000000    15.994914619560
           H          0.067148923963    -0.755234050691     0.000000000000     1.007825032070
           H         -1.132851076037     0.044765949309     0.000000000000     1.007825032070

  Basis Set: 6-31G
    Blend: 6-31G
  Basis Set: (6-31G AUX)
    Blend: CC-PVDZ-JKFIT
  Basis Set: (6-31G AUX)
    Blend: CC-PVDZ-JKFIT
	 Reference Energy          =     -75.9012489715628078 [Eh]
	 Singles Energy            =      -0.0000000000000000 [Eh]
	 Same-Spin Energy          =      -0.0303457240119903 [Eh]
	 Opposite-Spin Energy      =      -0.1023420858463885 [Eh]
	 Correlation Energy        =      -0.1326878098583788 [Eh]
	 Total Energy              =     -76.0339367814211897 [Eh]

	 ================> DF-SCS-MP2 Energies <==================
	-----------------------------------------------------------
	 SCS Same-Spin Scale       =       0.3333333333333333 [-]
	 SCS Opposite-Spin Scale   =       1.2000000000000000 [-]
	 SCS Same-Spin Energy      =      -0.0101152413373301 [Eh]
	 SCS Opposite-Spin Energy  =      -0.1228105030156662 [Eh]
	 SCS Correlation Energy    =      -0.1329257443529963 [Eh]
	 SCS Total Energy          =     -76.0341747159158103 [Eh]
	-----------------------------------------------------------

  -Total Gradient:
     Atom            X                  Y                   Z
    ------   -----------------  -----------------  -----------------
       1        0.125134843469    -0.312777222644     0.000000000000
       2       -0.035376712411     0.336361699040    -0.000000000000
       3       -0.089758131058    -0.023584476396     0.000000000000

*** Psi4 exiting successfully. Buy a developer a beer!
