                               Psi4 1.2a1.dev429

  ==> Input File <==

--------------------------------------------------------------------------
# density-fitted hartree fock energies and gradients with 6-31g
molecule h20 {
0 1
O 0.0000000000 0.0000000000 0.0000000000
H 0.0000000000 0.0000000000 0.9000000000
H 0.0000000000 0.6062177826 -0.3500000000
}

set basis 6-31g

gradient('hf')
--------------------------------------------------------------------------

    Molecular point group: cs
  Charge       = 0
  Multiplicity = 1
  Basis Set: 6-31G
    Blend: 6-31G
  Basis Set: (6-31G AUX)
    Blend: CC-PVDZ-JKFIT

    Orbital Energies (a.u.)
    -----------------------

    Doubly Occupied:

       1Ap   -20.522065     2Ap    -1.452001     3Ap    -0.840185
       4Ap    -0.554750     1App   -0.510195

  @DF-RHF Final Energy:   -75.85718136044258

   => Energetics <=

    Nuclear Repulsion Energy =             11.1324470264853552
    One-Electron Energy =                -126.2208638079345633
    Two-Electron Energy =                  39.2312354210066161
    Total Energy =                        -75.8571813604425955
    Molecular point group: cs

    Geometry (in Angstrom), charge = 0, multiplicity = 1:

       Center              X                  Y                   Z               Mass
    ------------   -----------------  -----------------  -----------------  -----------------
           O          0.033922393158     0.030776590150     0.000000000000    15.994914619560
           H          0.033922393158    -0.869223409850     0.000000000000     1.007825032070
           H         -0.572295389442     0.380776590150     0.000000000000     1.007825032070

  Basis Set: 6-31G
    Blend: 6-31G
  Basis Set: (6-31G AUX)
    Blend: CC-PVDZ-JKFIT

  -Total Gradient:
     Atom            X                  Y                   Z
    ------   -----------------  -----------------  -----------------
       1       -0.634427333602     0.309477754284     0.000000000000
       2        0.001709307302     0.053284504501     0.000000000000
       3        0.632718026300    -0.362762258785     0.000000000000

*** Psi4 exiting successfully. Buy a developer a beer!
