                               Psi4 1.2a1.dev429

  ==> Input File <==

--------------------------------------------------------------------------
# density-fitted hartree fock energies and gradients with 6-31g
molecule h20 {
0 1
O 0.0000000000 0.0000000000 0.0000000000
H 0.0000000000 0.0000000000 0.8000000000
H 0.0000000000 0.8660254038 -0.5000000000
}

set basis 6-31g

gradient('hf')
--------------------------------------------------------------------------

    Molecular point group: cs
  Charge       = 0
  Multiplicity = 1
  Basis Set: 6-31G
    Blend: 6-31G
  Basis Set: (6-31G AUX)
    Blend: CC-PVDZ-JKFIT

    Orbital Energies (a.u.)
    -----------------------

    Doubly Occupied:

       1Ap   -20.537145     2Ap    -1.383271     3Ap    -0.770325
       4Ap    -0.538761     1App   -0.498845

  @DF-RHF Final Energy:   -75.94722414136486

   => Energetics <=

    Nuclear Repulsion Energy =              9.8639607481583909
    One-Electron Energy =                -124.1656750952214736
    Two-Electron Energy =                  38.3544902056982266
    Total Energy =                        -75.9472241413648561
    Molecular point group: cs

    Geometry (in Angstrom), charge = 0, multiplicity = 1:

       Center              X                  Y                   Z               Mass
    ------------   -----------------  -----------------  -----------------  -----------------
           O          0.048460561658     0.016787230991     0.000000000000    15.994914619560
           H          0.048460561658    -0.783212769009     0.000000000000     1.007825032070
           H         -0.817564842142     0.516787230991     0.000000000000     1.007825032070

  Basis Set: 6-31G
    Blend: 6-31G
  Basis Set: (6-31G AUX)
    Blend: CC-PVDZ-JKFIT

  -Total Gradient:
     Atom            X                  Y                   Z
    ------   -----------------  -----------------  -----------------
       1        0.033098364124    -0.326088024590     0.000000000000
       2        0.011721808918     0.289382943070     0.000000000000
       3       -0.044820173043     0.036705081519     0.000000000000

*** Psi4 exiting successfully. Buy a developer a beer!
