                               Psi4 1.2a1.dev429

  ==> Input File <==

--------------------------------------------------------------------------
# density-fitted hartree fock energies and gradients with 6-31g
molecule h2o {
0 1
O 0.0000000000 0.0000000000 0.0000000000
H 0.0000000000 0.0000000000 1.4000000000
H 0.0000000000 0.6128355545 -0.5142300877
}

set basis 6-31g

gradient('mp2')
--------------------------------------------------------------------------

    Molecular point group: cs
  Charge       = 0
  Multiplicity = 1
  Basis Set: 6-31G
    Blend: 6-31G
  Basis Set: (6-31G AUX)
    Blend: CC-PVDZ-JKFIT

    Orbital Energies (a.u.)
    -----------------------

    Doubly Occupied:

       1Ap   -20.548198     2Ap    -1.334206     3Ap    -0.677948
       1App   -0.481325     4Ap    -0.480294

  @DF-RHF Final Energy:   -75.84426976024650

   => Energetics <=

    Nuclear Repulsion Energy =              8.5789224260244570
    One-Electron Energy =                -121.8024419226104982
    Two-Electron Energy =                  37.3792497363395313
    Total Energy =                        -75.8442697602465046
  Basis Set: (6-31G AUX)
    Blend: CC-PVDZ-RI
    Molecular point group: cs

    Geometry (in Angstrom), charge = 0, multiplicity = 1:

       Center              X                  Y                   Z               Mass
    ------------   -----------------  -----------------  -----------------  -----------------
           O          0.034292706709     0.049565413742     0.000000000000    15.994914619560
           H          0.034292706709    -1.350434586258     0.000000000000     1.007825032070
           H         -0.578542847791     0.563795501442     0.000000000000     1.007825032070

  Basis Set: 6-31G
    Blend: 6-31G
  Basis Set: (6-31G AUX)
    Blend: CC-PVDZ-JKFIT
  Basis Set: (6-31G AUX)
    Blend: CC-PVDZ-JKFIT
	 Reference Energy          =     -75.8442697602465046 [Eh]
	 Singles Energy            =      -0.0000000000000000 [Eh]
	 Same-Spin Energy          =      -0.0317499007922694 [Eh]
	 Opposite-Spin Energy      =      -0.1065658975891780 [Eh]
	 Correlation Energy        =      -0.1383157983814475 [Eh]
	 Total Energy              =     -75.9825855586279459 [Eh]

	 ================> DF-SCS-MP2 Energies <==================
	-----------------------------------------------------------
	 SCS Same-Spin Scale       =       0.3333333333333333 [-]
	 SCS Opposite-Spin Scale   =       1.2000000000000000 [-]
	 SCS Same-Spin Energy      =      -0.0105833002640898 [Eh]
	 SCS Opposite-Spin Energy  =      -0.1278790771070136 [Eh]
	 SCS Correlation Energy    =      -0.1384623773711035 [Eh]
	 SCS Total Energy          =     -75.9827321376176030 [Eh]
	-----------------------------------------------------------

  -Total Gradient:
     Atom            X                  Y                   Z
    ------   -----------------  -----------------  -----------------
       1       -0.299161086361     0.297944537540    -0.000000000000
       2        0.023890485464    -0.121542002421     0.000000000000
       3        0.275270600897    -0.176402535119     0.000000000000

*** Psi4 exiting successfully. Buy a developer a beer!
