                               Psi4 1.2.1 release

  ==> Input File <==

--------------------------------------------------------------------------
# density fitted hartree fock
molecule h2o {
0 1
H 0.0000000000 0.0000000000 0.9375000000
H 0.0000000000 0.7852976026 -0.3252809175
O 0.0000000000 0.0000000000 0.0000000000
}

set basis 6-31g
energy('hf')

--------------------------------------------------------------------------

    Molecular point group: cs

    Geometry (in Angstrom), charge = 0, multiplicity = 1:

       Center              X                  Y                   Z               Mass
    ------------   -----------------  -----------------  -----------------  -----------------
         H            0.043943240838    -0.903241789484     0.000000000000     1.007825032070
         H           -0.741354361762     0.359539128016     0.000000000000     1.007825032070
         O            0.043943240838     0.034258210516     0.000000000000    15.994914619560

  Charge       = 0
  Multiplicity = 1
  Basis Set: 6-31G
    Blend: 6-31G
  Basis Set: (6-31G AUX)
    Blend: CC-PVDZ-JKFIT

    Orbital Energies [Eh]
    ---------------------

    Doubly Occupied:

       1Ap   -20.542137     2Ap    -1.385965     3Ap    -0.762887
       4Ap    -0.554402     1App   -0.502249

  @DF-RHF Final Energy:   -75.97190852600288

   => Energetics <=

    Nuclear Repulsion Energy =              9.8519947097177987
    One-Electron Energy =                -124.1525215948845045
    Two-Electron Energy =                  38.3286183591638334
    Total Energy =                        -75.9719085260028635

  Dipole Moment: [D]
     X:    -2.0004      Y:    -1.4239      Z:     0.0000     Total:     2.4555

*** Psi4 exiting successfully. Buy a developer a beer!
