                               Psi4 1.2.1 release

  ==> Input File <==

--------------------------------------------------------------------------
# density fitted hartree fock
molecule h2o {
0 1
H 0.0000000000 0.0000000000 1.0250000000
H 0.0000000000 0.9055554621 -0.2426428548
O 0.0000000000 0.0000000000 0.0000000000
}

set basis 6-31g
energy('hf')

--------------------------------------------------------------------------

    Molecular point group: cs

    Geometry (in Angstrom), charge = 0, multiplicity = 1:

       Center              X                  Y                   Z               Mass
    ------------   -----------------  -----------------  -----------------  -----------------
         H            0.050672562391    -0.981221299621     0.000000000000     1.007825032070
         H           -0.854882899709     0.286421555179     0.000000000000     1.007825032070
         O            0.050672562391     0.043778700379     0.000000000000    15.994914619560

  Charge       = 0
  Multiplicity = 1
  Basis Set: 6-31G
    Blend: 6-31G
  Basis Set: (6-31G AUX)
    Blend: CC-PVDZ-JKFIT

    Orbital Energies [Eh]
    ---------------------

    Doubly Occupied:

       1Ap   -20.564602     2Ap    -1.345321     3Ap    -0.698243
       4Ap    -0.555597     1App   -0.500038

  @DF-RHF Final Energy:   -75.97943563879653

   => Energetics <=

    Nuclear Repulsion Energy =              8.9854897341041884
    One-Electron Energy =                -122.6022457111354953
    Two-Electron Energy =                  37.6373203382347725
    Total Energy =                        -75.9794356387965308

  Dipole Moment: [D]
     X:    -2.0637      Y:    -1.6295      Z:     0.0000     Total:     2.6295

*** Psi4 exiting successfully. Buy a developer a beer!
