                               Psi4 1.2a1.dev429

  ==> Input File <==

--------------------------------------------------------------------------
# density-fitted hartree fock energies and gradients with 6-31g
molecule h2o {
0 1
O 0.0000000000 0.0000000000 0.0000000000
H 0.0000000000 0.0000000000 1.2000000000
H 0.0000000000 0.9396926208 -0.3420201433
}

set basis 6-31g

gradient('mp2')
--------------------------------------------------------------------------

    Molecular point group: cs
  Charge       = 0
  Multiplicity = 1
  Basis Set: 6-31G
    Blend: 6-31G
  Basis Set: (6-31G AUX)
    Blend: CC-PVDZ-JKFIT

    Orbital Energies (a.u.)
    -----------------------

    Doubly Occupied:

       1Ap   -20.581595     2Ap    -1.295541     3Ap    -0.648828
       4Ap    -0.525919     1App   -0.493375

  @DF-RHF Final Energy:   -75.94441053150457

   => Energetics <=

    Nuclear Repulsion Energy =              8.0543117480932374
    One-Electron Energy =                -120.9069289515217775
    Two-Electron Energy =                  36.9082066719239634
    Total Energy =                        -75.9444105315045732
  Basis Set: (6-31G AUX)
    Blend: CC-PVDZ-RI
    Molecular point group: cs

    Geometry (in Angstrom), charge = 0, multiplicity = 1:

       Center              X                  Y                   Z               Mass
    ------------   -----------------  -----------------  -----------------  -----------------
           O          0.052582790286     0.048010353466     0.000000000000    15.994914619560
           H          0.052582790286    -1.151989646534     0.000000000000     1.007825032070
           H         -0.887109830514     0.390030496766     0.000000000000     1.007825032070

  Basis Set: 6-31G
    Blend: 6-31G
  Basis Set: (6-31G AUX)
    Blend: CC-PVDZ-JKFIT
  Basis Set: (6-31G AUX)
    Blend: CC-PVDZ-JKFIT
	 Reference Energy          =     -75.9444105315045732 [Eh]
	 Singles Energy            =      -0.0000000000000000 [Eh]
	 Same-Spin Energy          =      -0.0327481592391109 [Eh]
	 Opposite-Spin Energy      =      -0.1083575881973349 [Eh]
	 Correlation Energy        =      -0.1411057474364458 [Eh]
	 Total Energy              =     -76.0855162789410144 [Eh]

	 ================> DF-SCS-MP2 Energies <==================
	-----------------------------------------------------------
	 SCS Same-Spin Scale       =       0.3333333333333333 [-]
	 SCS Opposite-Spin Scale   =       1.2000000000000000 [-]
	 SCS Same-Spin Energy      =      -0.0109160530797036 [Eh]
	 SCS Opposite-Spin Energy  =      -0.1300291058368019 [Eh]
	 SCS Correlation Energy    =      -0.1409451589165055 [Eh]
	 SCS Total Energy          =     -76.0853556904210819 [Eh]
	-----------------------------------------------------------

  -Total Gradient:
     Atom            X                  Y                   Z
    ------   -----------------  -----------------  -----------------
       1        0.002580277674     0.086722721006     0.000000000000
       2        0.009136251619    -0.102654306020    -0.000000000000
       3       -0.011716529293     0.015931585013    -0.000000000000

*** Psi4 exiting successfully. Buy a developer a beer!
