                               Psi4 1.2a1.dev429

  ==> Input File <==

--------------------------------------------------------------------------
# density-fitted hartree fock energies and gradients with 6-31g
molecule h2o {
0 1
O 0.0000000000 0.0000000000 0.0000000000
H 0.0000000000 0.0000000000 0.8000000000
H 0.0000000000 0.4104241720 -1.1276311449
}

set basis 6-31g

gradient('mp2')
--------------------------------------------------------------------------

    Molecular point group: cs
  Charge       = 0
  Multiplicity = 1
  Basis Set: 6-31G
    Blend: 6-31G
  Basis Set: (6-31G AUX)
    Blend: CC-PVDZ-JKFIT

    Orbital Energies (a.u.)
    -----------------------

    Doubly Occupied:

       1Ap   -20.505294     2Ap    -1.312404     3Ap    -0.728492
       4Ap    -0.463980     1App   -0.462422

  @DF-RHF Final Energy:   -75.86880344307484

   => Energetics <=

    Nuclear Repulsion Energy =              9.0881235432826362
    One-Electron Energy =                -122.9686680816527087
    Two-Electron Energy =                  38.0117410952952355
    Total Energy =                        -75.8688034430748388
  Basis Set: (6-31G AUX)
    Blend: CC-PVDZ-RI
    Molecular point group: cs

    Geometry (in Angstrom), charge = 0, multiplicity = 1:

       Center              X                  Y                   Z               Mass
    ------------   -----------------  -----------------  -----------------  -----------------
           O          0.022966284599    -0.018333399031     0.000000000000    15.994914619560
           H          0.022966284599    -0.818333399031     0.000000000000     1.007825032070
           H         -0.387457887401     1.109297745869     0.000000000000     1.007825032070

  Basis Set: 6-31G
    Blend: 6-31G
  Basis Set: (6-31G AUX)
    Blend: CC-PVDZ-JKFIT
  Basis Set: (6-31G AUX)
    Blend: CC-PVDZ-JKFIT
	 Reference Energy          =     -75.8688034430748388 [Eh]
	 Singles Energy            =      -0.0000000000000000 [Eh]
	 Same-Spin Energy          =      -0.0309002652788217 [Eh]
	 Opposite-Spin Energy      =      -0.0975996718243256 [Eh]
	 Correlation Energy        =      -0.1284999371031473 [Eh]
	 Total Energy              =     -75.9973033801779820 [Eh]

	 ================> DF-SCS-MP2 Energies <==================
	-----------------------------------------------------------
	 SCS Same-Spin Scale       =       0.3333333333333333 [-]
	 SCS Opposite-Spin Scale   =       1.2000000000000000 [-]
	 SCS Same-Spin Energy      =      -0.0103000884262739 [Eh]
	 SCS Opposite-Spin Energy  =      -0.1171196061891908 [Eh]
	 SCS Correlation Energy    =      -0.1274196946154647 [Eh]
	 SCS Total Energy          =     -75.9962231376903077 [Eh]
	-----------------------------------------------------------

  -Total Gradient:
     Atom            X                  Y                   Z
    ------   -----------------  -----------------  -----------------
       1       -0.009546884829    -0.440870807557     0.000000000000
       2        0.035427656345     0.300708280582    -0.000000000000
       3       -0.025880771516     0.140162526976     0.000000000000

*** Psi4 exiting successfully. Buy a developer a beer!
