                               Psi4 1.2a1.dev429

  ==> Input File <==

--------------------------------------------------------------------------
# density-fitted hartree fock energies and gradients with 6-31g
molecule h2o {
0 1
O 0.0000000000 0.0000000000 0.0000000000
H 0.0000000000 0.0000000000 0.8000000000
H 0.0000000000 0.0000000000 -1.3000000000
}

set basis 6-31g

gradient('mp2')
--------------------------------------------------------------------------

    Molecular point group: c2v
  Charge       = 0
  Multiplicity = 1
  Basis Set: 6-31G
    Blend: 6-31G
  Basis Set: (6-31G AUX)
    Blend: CC-PVDZ-JKFIT

    Orbital Energies (a.u.)
    -----------------------

    Doubly Occupied:

       1A1   -20.489380     2A1    -1.289032     3A1    -0.693810
       1B2    -0.444897     1B1    -0.444897

  @DF-RHF Final Energy:   -75.82774314736446

   => Energetics <=

    Nuclear Repulsion Energy =              8.8002363626322335
    One-Electron Energy =                -122.5319251887883638
    Two-Electron Energy =                  37.9039456787916791
    Total Energy =                        -75.8277431473644583
  Basis Set: (6-31G AUX)
    Blend: CC-PVDZ-RI
    Molecular point group: c2v

    Geometry (in Angstrom), charge = 0, multiplicity = 1:

       Center              X                  Y                   Z               Mass
    ------------   -----------------  -----------------  -----------------  -----------------
           O          0.000000000000     0.000000000000     0.027978718318    15.994914619560
           H          0.000000000000     0.000000000000     0.827978718318     1.007825032070
           H          0.000000000000     0.000000000000    -1.272021281682     1.007825032070

  Basis Set: 6-31G
    Blend: 6-31G
  Basis Set: (6-31G AUX)
    Blend: CC-PVDZ-JKFIT
  Basis Set: (6-31G AUX)
    Blend: CC-PVDZ-JKFIT
	 Reference Energy          =     -75.8277431473644583 [Eh]
	 Singles Energy            =      -0.0000000000000000 [Eh]
	 Same-Spin Energy          =      -0.0314998194646142 [Eh]
	 Opposite-Spin Energy      =      -0.0988603576746718 [Eh]
	 Correlation Energy        =      -0.1303601771392860 [Eh]
	 Total Energy              =     -75.9581033245037389 [Eh]

	 ================> DF-SCS-MP2 Energies <==================
	-----------------------------------------------------------
	 SCS Same-Spin Scale       =       0.3333333333333333 [-]
	 SCS Opposite-Spin Scale   =       1.2000000000000000 [-]
	 SCS Same-Spin Energy      =      -0.0104999398215381 [Eh]
	 SCS Opposite-Spin Energy  =      -0.1186324292096062 [Eh]
	 SCS Correlation Energy    =      -0.1291323690311443 [Eh]
	 SCS Total Energy          =     -75.9568755163955984 [Eh]
	-----------------------------------------------------------

  -Total Gradient:
     Atom            X                  Y                   Z
    ------   -----------------  -----------------  -----------------
       1        0.000000000000    -0.000000000000     0.455577600392
       2       -0.000000000000     0.000000000000    -0.299682441046
       3       -0.000000000000     0.000000000000    -0.155895159347

*** Psi4 exiting successfully. Buy a developer a beer!
