                               Psi4 1.2a1.dev429

  ==> Input File <==

--------------------------------------------------------------------------
# density-fitted hartree fock energies and gradients with 6-31g
molecule h20 {
0 1
O 0.0000000000 0.0000000000 0.0000000000
H 0.0000000000 0.0000000000 0.7000000000
H 0.0000000000 0.4446261863 -1.2216004070
}

set basis 6-31g

gradient('hf')
--------------------------------------------------------------------------

    Molecular point group: cs
  Charge       = 0
  Multiplicity = 1
  Basis Set: 6-31G
    Blend: 6-31G
  Basis Set: (6-31G AUX)
    Blend: CC-PVDZ-JKFIT

    Orbital Energies (a.u.)
    -----------------------

    Doubly Occupied:

       1Ap   -20.496195     2Ap    -1.354342     3Ap    -0.723107
       1App   -0.461370     4Ap    -0.460924

  @DF-RHF Final Energy:   -75.74686686170068

   => Energetics <=

    Nuclear Repulsion Energy =              9.5725098558948147
    One-Electron Energy =                -123.6468778687007983
    Two-Electron Energy =                  38.3275011511053165
    Total Energy =                        -75.7468668617006813
    Molecular point group: cs

    Geometry (in Angstrom), charge = 0, multiplicity = 1:

       Center              X                  Y                   Z               Mass
    ------------   -----------------  -----------------  -----------------  -----------------
           O          0.024880141647    -0.029187421724     0.000000000000    15.994914619560
           H          0.024880141647    -0.729187421724     0.000000000000     1.007825032070
           H         -0.419746044653     1.192412985276     0.000000000000     1.007825032070

  Basis Set: 6-31G
    Blend: 6-31G
  Basis Set: (6-31G AUX)
    Blend: CC-PVDZ-JKFIT

  -Total Gradient:
     Atom            X                  Y                   Z
    ------   -----------------  -----------------  -----------------
       1       -0.001950120651    -0.894726312651     0.000000000000
       2        0.039396280667     0.729820053977     0.000000000000
       3       -0.037446160015     0.164906258674     0.000000000000

*** Psi4 exiting successfully. Buy a developer a beer!
