                               Psi4 1.2a1.dev429

  ==> Input File <==

--------------------------------------------------------------------------
# density-fitted MP2 energies and gradients with 6-31g

molecule h20 {
-1 1
C 0.0000000000 0.0000000000 0.0000000000
X 0.0000000000 0.0000000000 1.0000000000
H 0.0000000000 1.1247038141 0.0983988336
H 0.9740220748 -0.5623519071 0.0983988336
H -0.9740220748 -0.5623519071 0.0983988336
}

set reference rhf
set basis 6-31g

gradient('mp2')
--------------------------------------------------------------------------

    Molecular point group: cs
  Charge       = -1
  Multiplicity = 1
  Basis Set: 6-31G
    Blend: 6-31G
  Basis Set: (6-31G AUX)
    Blend: CC-PVDZ-JKFIT

    Orbital Energies (a.u.)
    -----------------------

    Doubly Occupied:

       1Ap   -10.861016     2Ap    -0.537762     1App   -0.213184
       3Ap    -0.213184     4Ap     0.049289

  @DF-RHF Final Energy:   -39.43481847793777

   => Energetics <=

    Nuclear Repulsion Energy =              9.2517738558578237
    One-Electron Energy =                 -73.8214690672302396
    Two-Electron Energy =                  25.1348767334346483
    Total Energy =                        -39.4348184779377675
  Basis Set: (6-31G AUX)
    Blend: CC-PVDZ-RI
    Molecular point group: cs

    Geometry (in Angstrom), charge = -1, multiplicity = 1:

       Center              X                  Y                   Z               Mass
    ------------   -----------------  -----------------  -----------------  -----------------
           C         -0.000000000003    -0.019802770064     0.000000000000    12.000000000000
           H         -0.562351907065     0.078596063536     0.974022074780     1.007825032070
           H         -0.562351907065     0.078596063536    -0.974022074780     1.007825032070
           H          1.124703814170     0.078596063536     0.000000000000     1.007825032070

  Basis Set: 6-31G
    Blend: 6-31G
  Basis Set: (6-31G AUX)
    Blend: CC-PVDZ-JKFIT
  Basis Set: (6-31G AUX)
    Blend: CC-PVDZ-JKFIT
	 Reference Energy          =     -39.4348184779377675 [Eh]
	 Singles Energy            =      -0.0000000000000000 [Eh]
	 Same-Spin Energy          =      -0.0178419816833976 [Eh]
	 Opposite-Spin Energy      =      -0.0802377066444317 [Eh]
	 Correlation Energy        =      -0.0980796883278293 [Eh]
	 Total Energy              =     -39.5328981662655963 [Eh]

	 ================> DF-SCS-MP2 Energies <==================
	-----------------------------------------------------------
	 SCS Same-Spin Scale       =       0.3333333333333333 [-]
	 SCS Opposite-Spin Scale   =       1.2000000000000000 [-]
	 SCS Same-Spin Energy      =      -0.0059473272277992 [Eh]
	 SCS Opposite-Spin Energy  =      -0.0962852479733180 [Eh]
	 SCS Correlation Energy    =      -0.1022325752011172 [Eh]
	 SCS Total Energy          =     -39.5370510531388817 [Eh]
	-----------------------------------------------------------

  -Total Gradient:
     Atom            X                  Y                   Z
    ------   -----------------  -----------------  -----------------
       1        0.000000000035     0.007109550682    -0.000000000002
       2       -0.011209744888    -0.002369850227     0.019415847640
       3       -0.011209744886    -0.002369850227    -0.019415847637
       4        0.022419489739    -0.002369850228    -0.000000000001

*** Psi4 exiting successfully. Buy a developer a beer!
