                               Psi4 1.2a1.dev429

  ==> Input File <==

--------------------------------------------------------------------------
# density-fitted hartree fock energies and gradients with 6-31g
molecule o2 {
0 3
O 0.0000000000 0.0000000000 0.0000000000
O 0.0000000000 0.0000000000 1.4787878788
}

set basis 6-31g
set reference rohf

gradient('scf')
--------------------------------------------------------------------------

    Molecular point group: d2h
  Charge       = 0
  Multiplicity = 3
  Basis Set: 6-31G
    Blend: 6-31G
  Basis Set: (6-31G AUX)
    Blend: CC-PVDZ-JKFIT

    Orbital Energies (a.u.)
    -----------------------

    Doubly Occupied:

       1Ag   -20.786782     1B1u  -20.786387     2Ag    -1.492015
       2B1u   -1.185081     3Ag    -0.647051     1B3u   -0.629985
       1B2u   -0.629985

    Singly Occupied:

       1B2g   -0.309537     1B3g   -0.309537

  @DF-ROHF Final Energy:  -149.44894784046576

   => Energetics <=

    Nuclear Repulsion Energy =             22.9020955846909722
    One-Electron Energy =                -251.1495563696335296
    Two-Electron Energy =                  78.7985129444767836
    Total Energy =                       -149.4489478404657632
    Molecular point group: d2h

    Geometry (in Angstrom), charge = 0, multiplicity = 3:

       Center              X                  Y                   Z               Mass
    ------------   -----------------  -----------------  -----------------  -----------------
           O          0.000000000000     0.000000000000    -0.739393939400    15.994914619560
           O          0.000000000000     0.000000000000     0.739393939400    15.994914619560

  Basis Set: 6-31G
    Blend: 6-31G
  Basis Set: (6-31G AUX)
    Blend: CC-PVDZ-JKFIT

  -Total Gradient:
     Atom            X                  Y                   Z
    ------   -----------------  -----------------  -----------------
       1        0.000000000000     0.000000000000    -0.215369926892
       2       -0.000000000000     0.000000000000     0.215369926892

*** Psi4 exiting successfully. Buy a developer a beer!
