                               Psi4 1.2a1.dev429

  ==> Input File <==

--------------------------------------------------------------------------
# density-fitted hartree fock energies and gradients with 6-31g
molecule h2o {
0 1
O 0.0000000000 0.0000000000 0.0000000000
H 0.0000000000 0.0000000000 1.2000000000
H 0.0000000000 0.8426488874 -0.7070663707
}

set basis 6-31g

gradient('mp2')
--------------------------------------------------------------------------

    Molecular point group: cs
  Charge       = 0
  Multiplicity = 1
  Basis Set: 6-31G
    Blend: 6-31G
  Basis Set: (6-31G AUX)
    Blend: CC-PVDZ-JKFIT

    Orbital Energies (a.u.)
    -----------------------

    Doubly Occupied:

       1Ap   -20.568091     2Ap    -1.253762     3Ap    -0.636872
       4Ap    -0.486693     1App   -0.475998

  @DF-RHF Final Energy:   -75.91565508796981

   => Energetics <=

    Nuclear Repulsion Energy =              7.6302193495515933
    One-Electron Energy =                -120.2489190119839293
    Two-Electron Energy =                  36.7030445744625240
    Total Energy =                        -75.9156550879698102
  Basis Set: (6-31G AUX)
    Blend: CC-PVDZ-RI
    Molecular point group: cs

    Geometry (in Angstrom), charge = 0, multiplicity = 1:

       Center              X                  Y                   Z               Mass
    ------------   -----------------  -----------------  -----------------  -----------------
           O          0.047152471723     0.027583302327     0.000000000000    15.994914619560
           H          0.047152471723    -1.172416697673     0.000000000000     1.007825032070
           H         -0.795496415677     0.734649673027     0.000000000000     1.007825032070

  Basis Set: 6-31G
    Blend: 6-31G
  Basis Set: (6-31G AUX)
    Blend: CC-PVDZ-JKFIT
  Basis Set: (6-31G AUX)
    Blend: CC-PVDZ-JKFIT
	 Reference Energy          =     -75.9156550879698102 [Eh]
	 Singles Energy            =      -0.0000000000000000 [Eh]
	 Same-Spin Energy          =      -0.0336147606199861 [Eh]
	 Opposite-Spin Energy      =      -0.1100688701870177 [Eh]
	 Correlation Energy        =      -0.1436836308070037 [Eh]
	 Total Energy              =     -76.0593387187768144 [Eh]

	 ================> DF-SCS-MP2 Energies <==================
	-----------------------------------------------------------
	 SCS Same-Spin Scale       =       0.3333333333333333 [-]
	 SCS Opposite-Spin Scale   =       1.2000000000000000 [-]
	 SCS Same-Spin Energy      =      -0.0112049202066620 [Eh]
	 SCS Opposite-Spin Energy  =      -0.1320826442244212 [Eh]
	 SCS Correlation Energy    =      -0.1432875644310832 [Eh]
	 SCS Total Energy          =     -76.0589426524008871 [Eh]
	-----------------------------------------------------------

  -Total Gradient:
     Atom            X                  Y                   Z
    ------   -----------------  -----------------  -----------------
       1        0.010333182851     0.030708094051    -0.000000000000
       2        0.030255818075    -0.107853035831     0.000000000000
       3       -0.040589000926     0.077144941781     0.000000000000

*** Psi4 exiting successfully. Buy a developer a beer!
