                               Psi4 1.2a1.dev429

  ==> Input File <==

--------------------------------------------------------------------------
# density-fitted hartree fock energies and gradients with 6-31g
molecule h20 {
0 1
O 0.0000000000 0.0000000000 0.0000000000
H 0.0000000000 0.0000000000 1.1000000000
H 0.0000000000 0.6893654271 -0.1215537244
}

set basis 6-31g

gradient('hf')
--------------------------------------------------------------------------

    Molecular point group: cs
  Charge       = 0
  Multiplicity = 1
  Basis Set: 6-31G
    Blend: 6-31G
  Basis Set: (6-31G AUX)
    Blend: CC-PVDZ-JKFIT

    Orbital Energies (a.u.)
    -----------------------

    Doubly Occupied:

       1Ap   -20.551903     2Ap    -1.443566     3Ap    -0.738276
       4Ap    -0.569270     1App   -0.511137

  @DF-RHF Final Energy:   -75.83540573721008

   => Energetics <=

    Nuclear Repulsion Energy =             10.2735714932437379
    One-Electron Energy =                -124.5896493789026636
    Two-Electron Energy =                  38.4806721484488321
    Total Energy =                        -75.8354057372100954
    Molecular point group: cs

    Geometry (in Angstrom), charge = 0, multiplicity = 1:

       Center              X                  Y                   Z               Mass
    ------------   -----------------  -----------------  -----------------  -----------------
           O          0.038575122206     0.054751345469     0.000000000000    15.994914619560
           H          0.038575122206    -1.045248654531     0.000000000000     1.007825032070
           H         -0.650790304894     0.176305069869     0.000000000000     1.007825032070

  Basis Set: 6-31G
    Blend: 6-31G
  Basis Set: (6-31G AUX)
    Blend: CC-PVDZ-JKFIT

  -Total Gradient:
     Atom            X                  Y                   Z
    ------   -----------------  -----------------  -----------------
       1       -0.708665730078     0.256244095761     0.000000000000
       2       -0.019219072735    -0.097231062032     0.000000000000
       3        0.727884802813    -0.159013033730     0.000000000000

*** Psi4 exiting successfully. Buy a developer a beer!
