                               Psi4 1.2a1.dev429

  ==> Input File <==

--------------------------------------------------------------------------
# density-fitted hartree fock energies and gradients with 6-31g
molecule h20 {
0 1
O 0.0000000000 0.0000000000 0.0000000000
H 0.0000000000 0.0000000000 1.2000000000
H 0.0000000000 0.6893654271 -0.1215537244
}

set basis 6-31g

gradient('hf')
--------------------------------------------------------------------------

    Molecular point group: cs
  Charge       = 0
  Multiplicity = 1
  Basis Set: 6-31G
    Blend: 6-31G
  Basis Set: (6-31G AUX)
    Blend: CC-PVDZ-JKFIT

    Orbital Energies (a.u.)
    -----------------------

    Doubly Occupied:

       1Ap   -20.559668     2Ap    -1.433027     3Ap    -0.718546
       4Ap    -0.554920     1App   -0.509827

  @DF-RHF Final Energy:   -75.81426592535294

   => Energetics <=

    Nuclear Repulsion Energy =              9.9306098528890772
    One-Electron Energy =                -123.9377744399377690
    Two-Electron Energy =                  38.1928986616957502
    Total Energy =                        -75.8142659253529416
    Molecular point group: cs

    Geometry (in Angstrom), charge = 0, multiplicity = 1:

       Center              X                  Y                   Z               Mass
    ------------   -----------------  -----------------  -----------------  -----------------
           O          0.038575122206     0.060347089132     0.000000000000    15.994914619560
           H          0.038575122206    -1.139652910868     0.000000000000     1.007825032070
           H         -0.650790304894     0.181900813532     0.000000000000     1.007825032070

  Basis Set: 6-31G
    Blend: 6-31G
  Basis Set: (6-31G AUX)
    Blend: CC-PVDZ-JKFIT

  -Total Gradient:
     Atom            X                  Y                   Z
    ------   -----------------  -----------------  -----------------
       1       -0.718335271154     0.274227385980     0.000000000000
       2       -0.012867433751    -0.122897876959     0.000000000000
       3        0.731202704905    -0.151329509021     0.000000000000

*** Psi4 exiting successfully. Buy a developer a beer!
