                               Psi4 1.2a1.dev429

  ==> Input File <==

--------------------------------------------------------------------------
# density-fitted hartree fock energies and gradients with 6-31g
molecule h2o {
0 1
O 0.0000000000 0.0000000000 0.0000000000
H 0.0000000000 0.0000000000 0.8000000000
H 0.0000000000 1.2990381057 -0.7500000000
}

set basis 6-31g

gradient('mp2')
--------------------------------------------------------------------------

    Molecular point group: cs
  Charge       = 0
  Multiplicity = 1
  Basis Set: 6-31G
    Blend: 6-31G
  Basis Set: (6-31G AUX)
    Blend: CC-PVDZ-JKFIT

    Orbital Energies (a.u.)
    -----------------------

    Doubly Occupied:

       1Ap   -20.565210     2Ap    -1.342952     3Ap    -0.665834
       1App   -0.490066     4Ap    -0.479840

  @DF-RHF Final Energy:   -75.82722115323246

   => Energetics <=

    Nuclear Repulsion Energy =              8.3757118210153685
    One-Electron Energy =                -121.3180623779876441
    Two-Electron Energy =                  37.1151294037398074
    Total Energy =                        -75.8272211532324718
  Basis Set: (6-31G AUX)
    Blend: CC-PVDZ-RI
    Molecular point group: cs

    Geometry (in Angstrom), charge = 0, multiplicity = 1:

       Center              X                  Y                   Z               Mass
    ------------   -----------------  -----------------  -----------------  -----------------
           O          0.072690842488     0.002797871832     0.000000000000    15.994914619560
           H          0.072690842488    -0.797202128168     0.000000000000     1.007825032070
           H         -1.226347263212     0.752797871832     0.000000000000     1.007825032070

  Basis Set: 6-31G
    Blend: 6-31G
  Basis Set: (6-31G AUX)
    Blend: CC-PVDZ-JKFIT
  Basis Set: (6-31G AUX)
    Blend: CC-PVDZ-JKFIT
	 Reference Energy          =     -75.8272211532324576 [Eh]
	 Singles Energy            =      -0.0000000000000000 [Eh]
	 Same-Spin Energy          =      -0.0320338058431190 [Eh]
	 Opposite-Spin Energy      =      -0.1111000205710320 [Eh]
	 Correlation Energy        =      -0.1431338264141510 [Eh]
	 Total Energy              =     -75.9703549796466149 [Eh]

	 ================> DF-SCS-MP2 Energies <==================
	-----------------------------------------------------------
	 SCS Same-Spin Scale       =       0.3333333333333333 [-]
	 SCS Opposite-Spin Scale   =       1.2000000000000000 [-]
	 SCS Same-Spin Energy      =      -0.0106779352810397 [Eh]
	 SCS Opposite-Spin Energy  =      -0.1333200246852384 [Eh]
	 SCS Correlation Energy    =      -0.1439979599662781 [Eh]
	 SCS Total Energy          =     -75.9712191131987424 [Eh]
	-----------------------------------------------------------

  -Total Gradient:
     Atom            X                  Y                   Z
    ------   -----------------  -----------------  -----------------
       1        0.056310853608    -0.400983728472    -0.000000000000
       2        0.031434501981     0.330965293587    -0.000000000000
       3       -0.087745355589     0.070018434884     0.000000000000

*** Psi4 exiting successfully. Buy a developer a beer!
