                               Psi4 1.3.1 release

  ==> Input File <==

--------------------------------------------------------------------------
# density fitted hartree fock
molecule h2o {
0 1
H 0.0000000000 0.0000000000 1.1500000000
H 0.0000000000 1.0382723675 -0.1564943795
O 0.0000000000 0.0000000000 0.0000000000
}

set basis 6-31g
energy('hf')

--------------------------------------------------------------------------

    Molecular point group: cs

    Geometry (in Angstrom), charge = 0, multiplicity = 1:

       Center              X                  Y                   Z               Mass
    ------------   -----------------  -----------------  -----------------  -----------------
         H            0.058099060224    -1.094405972185     0.000000000000     1.007825032230
         H           -0.980173307276     0.212088407315     0.000000000000     1.007825032230
         O            0.058099060224     0.055594027815     0.000000000000    15.994914619570

  Charge       = 0
  Multiplicity = 1
  Basis Set: 6-31G
    Blend: 6-31G
  Basis Set: (6-31G AUX)
    Blend: CC-PVDZ-JKFIT

    Orbital Energies [Eh]
    ---------------------

    Doubly Occupied:

       1Ap   -20.592774     2Ap    -1.300719     3Ap    -0.632258
       4Ap    -0.548728     1App   -0.500030

  @DF-RHF Final Energy:   -75.94954860811413

   => Energetics <=

    Nuclear Repulsion Energy =              8.0301570907762851
    One-Electron Energy =                -120.8103834312602629
    Two-Electron Energy =                  36.8306777323698569
    Total Energy =                        -75.9495486081141280

  Dipole Moment: [D]
     X:    -2.0857      Y:    -1.7893      Z:     0.0000     Total:     2.7481

*** Psi4 exiting successfully. Buy a developer a beer!
