                               Psi4 1.2a1.dev429

  ==> Input File <==

--------------------------------------------------------------------------
# density-fitted hartree fock energies and gradients with 6-31g
molecule h2o {
0 1
O 0.0000000000 0.0000000000 0.0000000000
H 0.0000000000 0.0000000000 1.2000000000
H 0.0000000000 0.6928203230 -0.4000000000
}

set basis 6-31g

gradient('mp2')
--------------------------------------------------------------------------

    Molecular point group: cs
  Charge       = 0
  Multiplicity = 1
  Basis Set: 6-31G
    Blend: 6-31G
  Basis Set: (6-31G AUX)
    Blend: CC-PVDZ-JKFIT

    Orbital Energies (a.u.)
    -----------------------

    Doubly Occupied:

       1Ap   -20.550629     2Ap    -1.356933     3Ap    -0.712955
       4Ap    -0.518808     1App   -0.492698

  @DF-RHF Final Energy:   -75.90682570577259

   => Energetics <=

    Nuclear Repulsion Energy =              9.1231240874670227
    One-Electron Energy =                -122.7958522577423253
    Two-Electron Energy =                  37.7659024645027230
    Total Energy =                        -75.9068257057725759
  Basis Set: (6-31G AUX)
    Blend: CC-PVDZ-RI
    Molecular point group: cs

    Geometry (in Angstrom), charge = 0, multiplicity = 1:

       Center              X                  Y                   Z               Mass
    ------------   -----------------  -----------------  -----------------  -----------------
           O          0.038768449325     0.044765949309     0.000000000000    15.994914619560
           H          0.038768449325    -1.155234050691     0.000000000000     1.007825032070
           H         -0.654051873675     0.444765949309     0.000000000000     1.007825032070

  Basis Set: 6-31G
    Blend: 6-31G
  Basis Set: (6-31G AUX)
    Blend: CC-PVDZ-JKFIT
  Basis Set: (6-31G AUX)
    Blend: CC-PVDZ-JKFIT
	 Reference Energy          =     -75.9068257057725901 [Eh]
	 Singles Energy            =      -0.0000000000000000 [Eh]
	 Same-Spin Energy          =      -0.0304707904392700 [Eh]
	 Opposite-Spin Energy      =      -0.1000931787962281 [Eh]
	 Correlation Energy        =      -0.1305639692354981 [Eh]
	 Total Energy              =     -76.0373896750080860 [Eh]

	 ================> DF-SCS-MP2 Energies <==================
	-----------------------------------------------------------
	 SCS Same-Spin Scale       =       0.3333333333333333 [-]
	 SCS Opposite-Spin Scale   =       1.2000000000000000 [-]
	 SCS Same-Spin Energy      =      -0.0101569301464233 [Eh]
	 SCS Opposite-Spin Energy  =      -0.1201118145554737 [Eh]
	 SCS Correlation Energy    =      -0.1302687447018970 [Eh]
	 SCS Total Energy          =     -76.0370944504744841 [Eh]
	-----------------------------------------------------------

  -Total Gradient:
     Atom            X                  Y                   Z
    ------   -----------------  -----------------  -----------------
       1       -0.304655678164     0.255920568300     0.000000000000
       2        0.015187795648    -0.115102242944    -0.000000000000
       3        0.289467882515    -0.140818325356    -0.000000000000

*** Psi4 exiting successfully. Buy a developer a beer!
