                               Psi4 1.2a1.dev429

  ==> Input File <==

--------------------------------------------------------------------------
# density-fitted hartree fock energies and gradients with 6-31g
molecule h20 {
0 1
O 0.0000000000 0.0000000000 0.0000000000
H 0.0000000000 0.0000000000 1.1000000000
H 0.0000000000 0.9958577761 -0.8356238926
}

set basis 6-31g

gradient('hf')
--------------------------------------------------------------------------

    Molecular point group: cs
  Charge       = 0
  Multiplicity = 1
  Basis Set: 6-31G
    Blend: 6-31G
  Basis Set: (6-31G AUX)
    Blend: CC-PVDZ-JKFIT

    Orbital Energies (a.u.)
    -----------------------

    Doubly Occupied:

       1Ap   -20.574780     2Ap    -1.244202     3Ap    -0.616744
       4Ap    -0.478784     1App   -0.475357

  @DF-RHF Final Energy:   -75.89010477639087

   => Energetics <=

    Nuclear Repulsion Energy =              7.3481375253732484
    One-Electron Energy =                -119.6967486429696379
    Two-Electron Energy =                  36.4585063412055135
    Total Energy =                        -75.8901047763908707
    Molecular point group: cs

    Geometry (in Angstrom), charge = 0, multiplicity = 1:

       Center              X                  Y                   Z               Mass
    ------------   -----------------  -----------------  -----------------  -----------------
           O          0.055725648405     0.014793809278     0.000000000000    15.994914619560
           H          0.055725648405    -1.085206190722     0.000000000000     1.007825032070
           H         -0.940132127695     0.850417701878     0.000000000000     1.007825032070

  Basis Set: 6-31G
    Blend: 6-31G
  Basis Set: (6-31G AUX)
    Blend: CC-PVDZ-JKFIT

  -Total Gradient:
     Atom            X                  Y                   Z
    ------   -----------------  -----------------  -----------------
       1        0.057655393757    -0.007792025424     0.000000000000
       2        0.030976077214    -0.100794026747     0.000000000000
       3       -0.088631470971     0.108586052171     0.000000000000

*** Psi4 exiting successfully. Buy a developer a beer!
