                               Psi4 1.2a1.dev429

  ==> Input File <==

--------------------------------------------------------------------------
# density-fitted hartree fock energies and gradients with 6-31g
molecule h2o {
0 1
O 0.0000000000 0.0000000000 0.0000000000
H 0.0000000000 0.0000000000 1.4000000000
H 0.0000000000 0.7000000000 -1.2124355653
}

set basis 6-31g

gradient('mp2')
--------------------------------------------------------------------------

    Molecular point group: c2v
  Charge       = 0
  Multiplicity = 1
  Basis Set: 6-31G
    Blend: 6-31G
  Basis Set: (6-31G AUX)
    Blend: CC-PVDZ-JKFIT

    Orbital Energies (a.u.)
    -----------------------

    Doubly Occupied:

       1A1   -20.570051     2A1    -1.180277     1B2    -0.534233
       1B1    -0.452538     3A1    -0.432288

  @DF-RHF Final Energy:   -75.76717390787718

   => Energetics <=

    Nuclear Repulsion Energy =              6.2433982979069365
    One-Electron Energy =                -117.6823702031264105
    Two-Electron Energy =                  35.6717979973423027
    Total Energy =                        -75.7671739078771793
  Basis Set: (6-31G AUX)
    Blend: CC-PVDZ-RI
    Molecular point group: c2v

    Geometry (in Angstrom), charge = 0, multiplicity = 1:

       Center              X                  Y                   Z               Mass
    ------------   -----------------  -----------------  -----------------  -----------------
           O         -0.000000000000     0.000000000000    -0.040551980886    15.994914619560
           H          0.000000000000    -1.352296156806     0.321794682257     1.007825032070
           H         -0.000000000000     1.352296156806     0.321794682257     1.007825032070

  Basis Set: 6-31G
    Blend: 6-31G
  Basis Set: (6-31G AUX)
    Blend: CC-PVDZ-JKFIT
  Basis Set: (6-31G AUX)
    Blend: CC-PVDZ-JKFIT
	 Reference Energy          =     -75.7671739078771793 [Eh]
	 Singles Energy            =      -0.0000000000000000 [Eh]
	 Same-Spin Energy          =      -0.0368261192478848 [Eh]
	 Opposite-Spin Energy      =      -0.1255085994179464 [Eh]
	 Correlation Energy        =      -0.1623347186658312 [Eh]
	 Total Energy              =     -75.9295086265430115 [Eh]

	 ================> DF-SCS-MP2 Energies <==================
	-----------------------------------------------------------
	 SCS Same-Spin Scale       =       0.3333333333333333 [-]
	 SCS Opposite-Spin Scale   =       1.2000000000000000 [-]
	 SCS Same-Spin Energy      =      -0.0122753730826283 [Eh]
	 SCS Opposite-Spin Energy  =      -0.1506103193015357 [Eh]
	 SCS Correlation Energy    =      -0.1628856923841639 [Eh]
	 SCS Total Energy          =     -75.9300596002613446 [Eh]
	-----------------------------------------------------------

  -Total Gradient:
     Atom            X                  Y                   Z
    ------   -----------------  -----------------  -----------------
       1        0.000000000000     0.000000000006     0.027066427869
       2        0.000000000000    -0.109121962022    -0.013533213934
       3       -0.000000000000     0.109121962016    -0.013533213935

*** Psi4 exiting successfully. Buy a developer a beer!
