                               Psi4 1.3.1 release

  ==> Input File <==

--------------------------------------------------------------------------
# density fitted MP2
molecule h2o {
0 1
H 0.0000000000 0.0000000000 0.8500000000
H 0.0000000000 0.8210369523 -0.2199961883
O 0.0000000000 0.0000000000 0.0000000000
}

set basis 6-31g
energy('mp2')

--------------------------------------------------------------------------

    Molecular point group: c2v

    Geometry (in Angstrom), charge = 0, multiplicity = 1:

       Center              X                  Y                   Z               Mass
    ------------   -----------------  -----------------  -----------------  -----------------
         H            0.000000000000    -0.674350339219     0.459537175190     1.007825032230
         H           -0.000000000000     0.674350339219     0.459537175190     1.007825032230
         O            0.000000000000     0.000000000000    -0.057910039461    15.994914619570

  Charge       = 0
  Multiplicity = 1
  Basis Set: 6-31G
    Blend: 6-31G
  Basis Set: (6-31G AUX)
    Blend: CC-PVDZ-JKFIT

    Orbital Energies [Eh]
    ---------------------

    Doubly Occupied:

       1A1   -20.538787     2A1    -1.422051     1B2    -0.776437
       3A1    -0.575516     1B1    -0.508918

  @DF-RHF Final Energy:   -75.95579426432283

   => Energetics <=

    Nuclear Repulsion Energy =             10.3533435401037153
    One-Electron Energy =                -124.9748566115799235
    Two-Electron Energy =                  38.6657188071533824
    Total Energy =                        -75.9557942643228330

  Dipole Moment: [D]
     X:     0.0000      Y:     0.0000      Z:     2.5665     Total:     2.5665

  Basis Set: (6-31G AUX)
    Blend: CC-PVDZ-RI
	 Reference Energy          =     -75.9557942643228330 [Eh]
	 Singles Energy            =      -0.0000000000000000 [Eh]
	 Same-Spin Energy          =      -0.0278360905499725 [Eh]
	 Opposite-Spin Energy      =      -0.0911182254702460 [Eh]
	 Correlation Energy        =      -0.1189543160202184 [Eh]
	 Total Energy              =     -76.0747485803430550 [Eh]

	 ================> DF-SCS-MP2 Energies <==================
	-----------------------------------------------------------
	 SCS Same-Spin Scale       =       0.3333333333333333 [-]
	 SCS Opposite-Spin Scale   =       1.2000000000000000 [-]
	 SCS Same-Spin Energy      =      -0.0092786968499908 [Eh]
	 SCS Opposite-Spin Energy  =      -0.1093418705642951 [Eh]
	 SCS Correlation Energy    =      -0.1186205674142859 [Eh]
	 SCS Total Energy          =     -76.0744148317371156 [Eh]
	-----------------------------------------------------------

*** Psi4 exiting successfully. Buy a developer a beer!
