                               Psi4 1.2a1.dev429

  ==> Input File <==

--------------------------------------------------------------------------
# density-fitted hartree fock energies and gradients with 6-31g
molecule h2o {
0 1
O 0.0000000000 0.0000000000 0.0000000000
H 0.0000000000 0.0000000000 1.2000000000
H 0.0000000000 1.1490666647 -0.9641814145
}

set basis 6-31g

gradient('mp2')
--------------------------------------------------------------------------

    Molecular point group: cs
  Charge       = 0
  Multiplicity = 1
  Basis Set: 6-31G
    Blend: 6-31G
  Basis Set: (6-31G AUX)
    Blend: CC-PVDZ-JKFIT

    Orbital Energies (a.u.)
    -----------------------

    Doubly Occupied:

       1Ap   -20.596337     2Ap    -1.218778     3Ap    -0.566187
       1App   -0.477005     4Ap    -0.457226

  @DF-RHF Final Energy:   -75.81820035375350

   => Energetics <=

    Nuclear Repulsion Energy =              6.5660895813613287
    One-Electron Energy =                -118.1375152421464492
    Two-Electron Energy =                  35.7532253070316202
    Total Energy =                        -75.8182003537534968
  Basis Set: (6-31G AUX)
    Blend: CC-PVDZ-RI
    Molecular point group: cs

    Geometry (in Angstrom), charge = 0, multiplicity = 1:

       Center              X                  Y                   Z               Mass
    ------------   -----------------  -----------------  -----------------  -----------------
           O          0.064298825081     0.013195803556     0.000000000000    15.994914619560
           H          0.064298825081    -1.186804196444     0.000000000000     1.007825032070
           H         -1.084767839619     0.977377218056     0.000000000000     1.007825032070

  Basis Set: 6-31G
    Blend: 6-31G
  Basis Set: (6-31G AUX)
    Blend: CC-PVDZ-JKFIT
  Basis Set: (6-31G AUX)
    Blend: CC-PVDZ-JKFIT
	 Reference Energy          =     -75.8182003537534968 [Eh]
	 Singles Energy            =      -0.0000000000000000 [Eh]
	 Same-Spin Energy          =      -0.0365895335257128 [Eh]
	 Opposite-Spin Energy      =      -0.1265563172932284 [Eh]
	 Correlation Energy        =      -0.1631458508189412 [Eh]
	 Total Energy              =     -75.9813462045724322 [Eh]

	 ================> DF-SCS-MP2 Energies <==================
	-----------------------------------------------------------
	 SCS Same-Spin Scale       =       0.3333333333333333 [-]
	 SCS Opposite-Spin Scale   =       1.2000000000000000 [-]
	 SCS Same-Spin Energy      =      -0.0121965111752376 [Eh]
	 SCS Opposite-Spin Energy  =      -0.1518675807518740 [Eh]
	 SCS Correlation Energy    =      -0.1640640919271116 [Eh]
	 SCS Total Energy          =     -75.9822644456806131 [Eh]
	-----------------------------------------------------------

  -Total Gradient:
     Atom            X                  Y                   Z
    ------   -----------------  -----------------  -----------------
       1        0.024728512234     0.008274507839    -0.000000000000
       2        0.033738057450    -0.092567308308     0.000000000000
       3       -0.058466569685     0.084292800469     0.000000000000

*** Psi4 exiting successfully. Buy a developer a beer!
