                               Psi4 1.2a1.dev429

  ==> Input File <==

--------------------------------------------------------------------------
# density-fitted hartree fock energies and gradients with 6-31g
molecule h2o {
0 1
O 0.0000000000 0.0000000000 0.0000000000
H 0.0000000000 0.0000000000 1.4000000000
H 0.0000000000 1.0336618829 -0.3762221577
}

set basis 6-31g

gradient('mp2')
--------------------------------------------------------------------------

    Molecular point group: cs
  Charge       = 0
  Multiplicity = 1
  Basis Set: 6-31G
    Blend: 6-31G
  Basis Set: (6-31G AUX)
    Blend: CC-PVDZ-JKFIT

    Orbital Energies (a.u.)
    -----------------------

    Doubly Occupied:

       1Ap   -20.605394     2Ap    -1.257307     3Ap    -0.596793
       4Ap    -0.497279     1App   -0.492882

  @DF-RHF Final Energy:   -75.88072775364554

   => Energetics <=

    Nuclear Repulsion Energy =              7.1299263333475418
    One-Electron Energy =                -119.1219989933847501
    Two-Electron Energy =                  36.1113449063916718
    Total Energy =                        -75.8807277536455445
  Basis Set: (6-31G AUX)
    Blend: CC-PVDZ-RI
    Molecular point group: cs

    Geometry (in Angstrom), charge = 0, multiplicity = 1:

       Center              X                  Y                   Z               Mass
    ------------   -----------------  -----------------  -----------------  -----------------
           O          0.057841069316     0.057287983740     0.000000000000    15.994914619560
           H          0.057841069316    -1.342712016260     0.000000000000     1.007825032070
           H         -0.975820813584     0.433510141440     0.000000000000     1.007825032070

  Basis Set: 6-31G
    Blend: 6-31G
  Basis Set: (6-31G AUX)
    Blend: CC-PVDZ-JKFIT
  Basis Set: (6-31G AUX)
    Blend: CC-PVDZ-JKFIT
	 Reference Energy          =     -75.8807277536455445 [Eh]
	 Singles Energy            =      -0.0000000000000000 [Eh]
	 Same-Spin Energy          =      -0.0352822972798442 [Eh]
	 Opposite-Spin Energy      =      -0.1202696073948162 [Eh]
	 Correlation Energy        =      -0.1555519046746603 [Eh]
	 Total Energy              =     -76.0362796583202112 [Eh]

	 ================> DF-SCS-MP2 Energies <==================
	-----------------------------------------------------------
	 SCS Same-Spin Scale       =       0.3333333333333333 [-]
	 SCS Opposite-Spin Scale   =       1.2000000000000000 [-]
	 SCS Same-Spin Energy      =      -0.0117607657599481 [Eh]
	 SCS Opposite-Spin Energy  =      -0.1443235288737794 [Eh]
	 SCS Correlation Energy    =      -0.1560842946337275 [Eh]
	 SCS Total Energy          =     -76.0368120482792733 [Eh]
	-----------------------------------------------------------

  -Total Gradient:
     Atom            X                  Y                   Z
    ------   -----------------  -----------------  -----------------
       1        0.044337894816     0.068685938800     0.000000000000
       2        0.012877680905    -0.106952341506     0.000000000000
       3       -0.057215575720     0.038266402706    -0.000000000000

*** Psi4 exiting successfully. Buy a developer a beer!
