                               Psi4 1.2a1.dev429

  ==> Input File <==

--------------------------------------------------------------------------
# density-fitted hartree fock energies and gradients with 6-31g
molecule h20 {
0 1
O 0.0000000000 0.0000000000 0.0000000000
O 0.0000000000 0.0000000000 1.4505050505
}

set basis 6-31g

gradient('hf')
--------------------------------------------------------------------------

    Molecular point group: d2h
  Charge       = 0
  Multiplicity = 1
  Basis Set: 6-31G
    Blend: 6-31G
  Basis Set: (6-31G AUX)
    Blend: CC-PVDZ-JKFIT

    Orbital Energies (a.u.)
    -----------------------

    Doubly Occupied:

       1Ag   -20.792007     1B1u  -20.791587     2Ag    -1.510965
       2B1u   -1.181726     1B2u   -0.715406     3Ag    -0.658375
       1B3u   -0.567312     1B3g   -0.552943

  @DF-RHF Final Energy:  -149.39738521677208

   => Energetics <=

    Nuclear Repulsion Energy =             23.3486545517960664
    One-Electron Energy =                -251.9514392146288912
    Two-Electron Energy =                  79.2053994460607385
    Total Energy =                       -149.3973852167720793
    Molecular point group: d2h

    Geometry (in Angstrom), charge = 0, multiplicity = 1:

       Center              X                  Y                   Z               Mass
    ------------   -----------------  -----------------  -----------------  -----------------
           O          0.000000000000     0.000000000000    -0.725252525250    15.994914619560
           O          0.000000000000     0.000000000000     0.725252525250    15.994914619560

  Basis Set: 6-31G
    Blend: 6-31G
  Basis Set: (6-31G AUX)
    Blend: CC-PVDZ-JKFIT

  -Total Gradient:
     Atom            X                  Y                   Z
    ------   -----------------  -----------------  -----------------
       1       -0.000000000000     0.000000000000    -0.202357682363
       2        0.000000000000     0.000000000000     0.202357682363

*** Psi4 exiting successfully. Buy a developer a beer!
