                               Psi4 1.3.1 release

  ==> Input File <==

--------------------------------------------------------------------------
# density fitted MP2
molecule h2o {
0 1
H 0.0000000000 0.0000000000 1.2000000000
H 0.0000000000 1.0392304845 -0.6000000000
O 0.0000000000 0.0000000000 0.0000000000
}

set basis 6-31g
energy('mp2')

--------------------------------------------------------------------------

    Molecular point group: c2v

    Geometry (in Angstrom), charge = 0, multiplicity = 1:

       Center              X                  Y                   Z               Mass
    ------------   -----------------  -----------------  -----------------  -----------------
         H            0.000000000000    -1.039230484531     0.532851076011     1.007825032230
         H           -0.000000000000     1.039230484531     0.532851076011     1.007825032230
         O           -0.000000000000     0.000000000000    -0.067148923971    15.994914619570

  Charge       = 0
  Multiplicity = 1
  Basis Set: 6-31G
    Blend: 6-31G
  Basis Set: (6-31G AUX)
    Blend: CC-PVDZ-JKFIT

    Orbital Energies [Eh]
    ---------------------

    Doubly Occupied:

       1A1   -20.589363     2A1    -1.249243     1B2    -0.608566
       3A1    -0.497923     1B1    -0.484129

  @DF-RHF Final Energy:   -75.90314647752443

   => Energetics <=

    Nuclear Repulsion Energy =              7.3102966465655328
    One-Electron Energy =                -119.5684375584764894
    Two-Electron Energy =                  36.3549944343865263
    Total Energy =                        -75.9031464775244302

  Dipole Moment: [D]
     X:    -0.0000      Y:     0.0000      Z:     2.3406     Total:     2.3406

  Basis Set: (6-31G AUX)
    Blend: CC-PVDZ-RI
	 Reference Energy          =     -75.9031464775244302 [Eh]
	 Singles Energy            =      -0.0000000000000000 [Eh]
	 Same-Spin Energy          =      -0.0345456116654864 [Eh]
	 Opposite-Spin Energy      =      -0.1149735438044606 [Eh]
	 Correlation Energy        =      -0.1495191554699470 [Eh]
	 Total Energy              =     -76.0526656329943762 [Eh]

	 ================> DF-SCS-MP2 Energies <==================
	-----------------------------------------------------------
	 SCS Same-Spin Scale       =       0.3333333333333333 [-]
	 SCS Opposite-Spin Scale   =       1.2000000000000000 [-]
	 SCS Same-Spin Energy      =      -0.0115152038884955 [Eh]
	 SCS Opposite-Spin Energy  =      -0.1379682525653528 [Eh]
	 SCS Correlation Energy    =      -0.1494834564538482 [Eh]
	 SCS Total Energy          =     -76.0526299339782810 [Eh]
	-----------------------------------------------------------

*** Psi4 exiting successfully. Buy a developer a beer!
