                               Psi4 1.3.1 release

  ==> Input File <==

--------------------------------------------------------------------------
# density fitted hartree fock
molecule h2o {
0 1
H 0.0000000000 0.0000000000 1.1500000000
H 0.0000000000 1.1500000000 0.0000000000
O 0.0000000000 0.0000000000 0.0000000000
}

set basis 6-31g
energy('hf')

--------------------------------------------------------------------------

    Molecular point group: c2v

    Geometry (in Angstrom), charge = 0, multiplicity = 1:

       Center              X                  Y                   Z               Mass
    ------------   -----------------  -----------------  -----------------  -----------------
         H            0.000000000000    -0.813172798365     0.722166667674     1.007825032230
         H           -0.000000000000     0.813172798365     0.722166667674     1.007825032230
         O           -0.000000000000     0.000000000000    -0.091006130690    15.994914619570

  Charge       = 0
  Multiplicity = 1
  Basis Set: 6-31G
    Blend: 6-31G
  Basis Set: (6-31G AUX)
    Blend: CC-PVDZ-JKFIT

    Orbital Energies [Eh]
    ---------------------

    Doubly Occupied:

       1A1   -20.608825     2A1    -1.289558     1B2    -0.599137
       3A1    -0.557273     1B1    -0.504196

  @DF-RHF Final Energy:   -75.92777753001293

   => Energetics <=

    Nuclear Repulsion Energy =              7.6878436215949044
    One-Electron Energy =                -120.1132616771118791
    Two-Electron Energy =                  36.4976405255040461
    Total Energy =                        -75.9277775300129179

  Dipole Moment: [D]
     X:    -0.0000      Y:     0.0000      Z:     2.8690     Total:     2.8690

*** Psi4 exiting successfully. Buy a developer a beer!
