                               Psi4 1.2a1.dev429

  ==> Input File <==

--------------------------------------------------------------------------
# density-fitted hartree fock energies and gradients with 6-31g
molecule h20 {
0 1
O 0.0000000000 0.0000000000 0.0000000000
H 0.0000000000 0.0000000000 0.9000000000
H 0.0000000000 0.1389185421 -0.7878462024
}

set basis 6-31g

gradient('hf')
--------------------------------------------------------------------------

    Molecular point group: cs
  Charge       = 0
  Multiplicity = 1
  Basis Set: 6-31G
    Blend: 6-31G
  Basis Set: (6-31G AUX)
    Blend: CC-PVDZ-JKFIT

    Orbital Energies (a.u.)
    -----------------------

    Doubly Occupied:

       1Ap   -20.500265     2Ap    -1.360443     3Ap    -0.852533
       4Ap    -0.488377     1App   -0.487196

  @DF-RHF Final Energy:   -75.91906155727885

   => Energetics <=

    Nuclear Repulsion Energy =             10.3080351105215478
    One-Electron Energy =                -125.0765654715035140
    Two-Electron Energy =                  38.8494688037031182
    Total Energy =                        -75.9190615572788516
    Molecular point group: cs

    Geometry (in Angstrom), charge = 0, multiplicity = 1:

       Center              X                  Y                   Z               Mass
    ------------   -----------------  -----------------  -----------------  -----------------
           O          0.007773525517     0.006275839023     0.000000000000    15.994914619560
           H          0.007773525517    -0.893724160977     0.000000000000     1.007825032070
           H         -0.131145016583     0.794122041423     0.000000000000     1.007825032070

  Basis Set: 6-31G
    Blend: 6-31G
  Basis Set: (6-31G AUX)
    Blend: CC-PVDZ-JKFIT

  -Total Gradient:
     Atom            X                  Y                   Z
    ------   -----------------  -----------------  -----------------
       1       -0.069697846847     0.226568488643     0.000000000000
       2        0.011392408266     0.030291040476     0.000000000000
       3        0.058305438581    -0.256859529119     0.000000000000

*** Psi4 exiting successfully. Buy a developer a beer!
