                               Psi4 1.2a1.dev429

  ==> Input File <==

--------------------------------------------------------------------------
# density-fitted hartree fock energies and gradients with 6-31g
molecule h20 {
0 1
O 0.0000000000 0.0000000000 0.0000000000
H 0.0000000000 0.0000000000 0.9000000000
H 0.0000000000 0.6427876097 -0.7660444431
}

set basis 6-31g

gradient('hf')
--------------------------------------------------------------------------

    Molecular point group: cs
  Charge       = 0
  Multiplicity = 1
  Basis Set: 6-31G
    Blend: 6-31G
  Basis Set: (6-31G AUX)
    Blend: CC-PVDZ-JKFIT

    Orbital Energies (a.u.)
    -----------------------

    Doubly Occupied:

       1Ap   -20.527799     2Ap    -1.324418     3Ap    -0.758882
       4Ap    -0.498724     1App   -0.482308

  @DF-RHF Final Energy:   -75.96344061930255

   => Energetics <=

    Nuclear Repulsion Energy =              9.2335494602544568
    One-Electron Energy =                -123.2097170678599412
    Two-Electron Energy =                  38.0127269883029371
    Total Energy =                        -75.9634406193025598
    Molecular point group: cs

    Geometry (in Angstrom), charge = 0, multiplicity = 1:

       Center              X                  Y                   Z               Mass
    ------------   -----------------  -----------------  -----------------  -----------------
           O          0.035968746940     0.007495809587     0.000000000000    15.994914619560
           H          0.035968746940    -0.892504190413     0.000000000000     1.007825032070
           H         -0.606818862760     0.773540252687     0.000000000000     1.007825032070

  Basis Set: 6-31G
    Blend: 6-31G
  Basis Set: (6-31G AUX)
    Blend: CC-PVDZ-JKFIT

  -Total Gradient:
     Atom            X                  Y                   Z
    ------   -----------------  -----------------  -----------------
       1       -0.010851258350    -0.121214525679     0.000000000000
       2        0.031577275556     0.052301252318     0.000000000000
       3       -0.020726017205     0.068913273361     0.000000000000

*** Psi4 exiting successfully. Buy a developer a beer!
