                               Psi4 1.2a1.dev429

  ==> Input File <==

--------------------------------------------------------------------------
# density-fitted hartree fock energies and gradients with 6-31g
molecule h2o {
0 1
O 0.0000000000 0.0000000000 0.0000000000
H 0.0000000000 0.0000000000 1.4000000000
H 0.0000000000 0.9958577761 -0.8356238926
}

set basis 6-31g

gradient('mp2')
--------------------------------------------------------------------------

    Molecular point group: cs
  Charge       = 0
  Multiplicity = 1
  Basis Set: 6-31G
    Blend: 6-31G
  Basis Set: (6-31G AUX)
    Blend: CC-PVDZ-JKFIT

    Orbital Energies (a.u.)
    -----------------------

    Doubly Occupied:

       1Ap   -20.598807     2Ap    -1.212230     3Ap    -0.556828
       1App   -0.476600     4Ap    -0.463443

  @DF-RHF Final Energy:   -75.81905666141785

   => Energetics <=

    Nuclear Repulsion Energy =              6.4965654070326231
    One-Electron Energy =                -118.0154289331706252
    Two-Electron Energy =                  35.6998068647201663
    Total Energy =                        -75.8190566614178465
  Basis Set: (6-31G AUX)
    Blend: CC-PVDZ-RI
    Molecular point group: cs

    Geometry (in Angstrom), charge = 0, multiplicity = 1:

       Center              X                  Y                   Z               Mass
    ------------   -----------------  -----------------  -----------------  -----------------
           O          0.055725648405     0.031581040269     0.000000000000    15.994914619560
           H          0.055725648405    -1.368418959731     0.000000000000     1.007825032070
           H         -0.940132127695     0.867204932869     0.000000000000     1.007825032070

  Basis Set: 6-31G
    Blend: 6-31G
  Basis Set: (6-31G AUX)
    Blend: CC-PVDZ-JKFIT
  Basis Set: (6-31G AUX)
    Blend: CC-PVDZ-JKFIT
	 Reference Energy          =     -75.8190566614178465 [Eh]
	 Singles Energy            =      -0.0000000000000000 [Eh]
	 Same-Spin Energy          =      -0.0367441922985564 [Eh]
	 Opposite-Spin Energy      =      -0.1260857432534424 [Eh]
	 Correlation Energy        =      -0.1628299355519988 [Eh]
	 Total Energy              =     -75.9818865969698436 [Eh]

	 ================> DF-SCS-MP2 Energies <==================
	-----------------------------------------------------------
	 SCS Same-Spin Scale       =       0.3333333333333333 [-]
	 SCS Opposite-Spin Scale   =       1.2000000000000000 [-]
	 SCS Same-Spin Energy      =      -0.0122480640995188 [Eh]
	 SCS Opposite-Spin Energy  =      -0.1513028919041309 [Eh]
	 SCS Correlation Energy    =      -0.1635509560036497 [Eh]
	 SCS Total Energy          =     -75.9826076174214933 [Eh]
	-----------------------------------------------------------

  -Total Gradient:
     Atom            X                  Y                   Z
    ------   -----------------  -----------------  -----------------
       1        0.028427843495     0.012938412773    -0.000000000000
       2        0.029547742760    -0.103124609996     0.000000000000
       3       -0.057975586256     0.090186197223    -0.000000000000

*** Psi4 exiting successfully. Buy a developer a beer!
