                               Psi4 1.3.1 release

  ==> Input File <==

--------------------------------------------------------------------------
# density fitted MP2
molecule h2o {
0 1
H 0.0000000000 0.0000000000 1.1125000000
H 0.0000000000 0.9900739719 -0.2652895212
O 0.0000000000 0.0000000000 0.0000000000
}

set basis 6-31g
energy('mp2')

--------------------------------------------------------------------------

    Molecular point group: cs

    Geometry (in Angstrom), charge = 0, multiplicity = 1:

       Center              X                  Y                   Z               Mass
    ------------   -----------------  -----------------  -----------------  -----------------
         H            0.055402001556    -1.065092273308     0.000000000000     1.007825032230
         H           -0.934671970344     0.312697247892     0.000000000000     1.007825032230
         O            0.055402001556     0.047407726692     0.000000000000    15.994914619570

  Charge       = 0
  Multiplicity = 1
  Basis Set: 6-31G
    Blend: 6-31G
  Basis Set: (6-31G AUX)
    Blend: CC-PVDZ-JKFIT

    Orbital Energies [Eh]
    ---------------------

    Doubly Occupied:

       1Ap   -20.581531     2Ap    -1.306032     3Ap    -0.654075
       4Ap    -0.542353     1App   -0.496807

  @DF-RHF Final Energy:   -75.96155448184781

   => Energetics <=

    Nuclear Repulsion Energy =              8.2473820278166095
    One-Electron Energy =                -121.2562762122586832
    Two-Electron Energy =                  37.0473397025942504
    Total Energy =                        -75.9615544818478270

  Dipole Moment: [D]
     X:    -2.0864      Y:    -1.6260      Z:     0.0000     Total:     2.6452

  Basis Set: (6-31G AUX)
    Blend: CC-PVDZ-RI
	 Reference Energy          =     -75.9615544818478128 [Eh]
	 Singles Energy            =      -0.0000000000000000 [Eh]
	 Same-Spin Energy          =      -0.0323533299899071 [Eh]
	 Opposite-Spin Energy      =      -0.1066211456387191 [Eh]
	 Correlation Energy        =      -0.1389744756286262 [Eh]
	 Total Energy              =     -76.1005289574764419 [Eh]

	 ================> DF-SCS-MP2 Energies <==================
	-----------------------------------------------------------
	 SCS Same-Spin Scale       =       0.3333333333333333 [-]
	 SCS Opposite-Spin Scale   =       1.2000000000000000 [-]
	 SCS Same-Spin Energy      =      -0.0107844433299690 [Eh]
	 SCS Opposite-Spin Energy  =      -0.1279453747664629 [Eh]
	 SCS Correlation Energy    =      -0.1387298180964320 [Eh]
	 SCS Total Energy          =     -76.1002842999442493 [Eh]
	-----------------------------------------------------------

*** Psi4 exiting successfully. Buy a developer a beer!
