                               Psi4 1.2a1.dev429

  ==> Input File <==

--------------------------------------------------------------------------
# density-fitted hartree fock energies and gradients with 6-31g
molecule h20 {
0 1
O 0.0000000000 0.0000000000 0.0000000000
H 0.0000000000 0.0000000000 0.8000000000
H 0.0000000000 0.6928203230 -0.4000000000
}

set basis 6-31g

gradient('hf')
--------------------------------------------------------------------------

    Molecular point group: c2v
  Charge       = 0
  Multiplicity = 1
  Basis Set: 6-31G
    Blend: 6-31G
  Basis Set: (6-31G AUX)
    Blend: CC-PVDZ-JKFIT

    Orbital Energies (a.u.)
    -----------------------

    Doubly Occupied:

       1A1   -20.521079     2A1    -1.437152     1B2    -0.844020
       3A1    -0.555388     1B1    -0.509319

  @DF-RHF Final Energy:   -75.91879936168560

   => Energetics <=

    Nuclear Repulsion Energy =             10.9654449267471854
    One-Electron Energy =                -126.0345730513950713
    Two-Electron Energy =                  39.1503287629622889
    Total Energy =                        -75.9187993616856005
    Molecular point group: c2v

    Geometry (in Angstrom), charge = 0, multiplicity = 1:

       Center              X                  Y                   Z               Mass
    ------------   -----------------  -----------------  -----------------  -----------------
           O         -0.000000000000     0.000000000000    -0.044765949308    15.994914619560
           H          0.000000000000    -0.692820323021     0.355234050680     1.007825032070
           H         -0.000000000000     0.692820323021     0.355234050680     1.007825032070

  Basis Set: 6-31G
    Blend: 6-31G
  Basis Set: (6-31G AUX)
    Blend: CC-PVDZ-JKFIT

  -Total Gradient:
     Atom            X                  Y                   Z
    ------   -----------------  -----------------  -----------------
       1       -0.000000000000     0.000000000000     0.284457955252
       2       -0.000000000000     0.244677780913    -0.142228977626
       3        0.000000000000    -0.244677780913    -0.142228977626

*** Psi4 exiting successfully. Buy a developer a beer!
