                               Psi4 1.2a1.dev429

  ==> Input File <==

--------------------------------------------------------------------------
# density-fitted hartree fock energies and gradients with 6-31g
molecule h2o {
0 1
O 0.0000000000 0.0000000000 0.0000000000
H 0.0000000000 0.0000000000 1.4000000000
H 0.0000000000 0.5000000000 -0.8660254038
}

set basis 6-31g

gradient('mp2')
--------------------------------------------------------------------------

    Molecular point group: cs
  Charge       = 0
  Multiplicity = 1
  Basis Set: 6-31G
    Blend: 6-31G
  Basis Set: (6-31G AUX)
    Blend: CC-PVDZ-JKFIT

    Orbital Energies (a.u.)
    -----------------------

    Doubly Occupied:

       1Ap   -20.537503     2Ap    -1.234959     3Ap    -0.622367
       1App   -0.453052     4Ap    -0.444985

  @DF-RHF Final Energy:   -75.85203855748655

   => Energetics <=

    Nuclear Repulsion Energy =              7.4853287140570117
    One-Electron Energy =                -120.0890022195711992
    Two-Electron Energy =                  36.7516349480276432
    Total Energy =                        -75.8520385574865514
  Basis Set: (6-31G AUX)
    Blend: CC-PVDZ-RI
    Molecular point group: cs

    Geometry (in Angstrom), charge = 0, multiplicity = 1:

       Center              X                  Y                   Z               Mass
    ------------   -----------------  -----------------  -----------------  -----------------
           O          0.027978718318     0.029879849632     0.000000000000    15.994914619560
           H          0.027978718318    -1.370120150368     0.000000000000     1.007825032070
           H         -0.472021281682     0.895905253432     0.000000000000     1.007825032070

  Basis Set: 6-31G
    Blend: 6-31G
  Basis Set: (6-31G AUX)
    Blend: CC-PVDZ-JKFIT
  Basis Set: (6-31G AUX)
    Blend: CC-PVDZ-JKFIT
	 Reference Energy          =     -75.8520385574865514 [Eh]
	 Singles Energy            =      -0.0000000000000000 [Eh]
	 Same-Spin Energy          =      -0.0339526119189064 [Eh]
	 Opposite-Spin Energy      =      -0.1111362654459420 [Eh]
	 Correlation Energy        =      -0.1450888773648484 [Eh]
	 Total Energy              =     -75.9971274348513930 [Eh]

	 ================> DF-SCS-MP2 Energies <==================
	-----------------------------------------------------------
	 SCS Same-Spin Scale       =       0.3333333333333333 [-]
	 SCS Opposite-Spin Scale   =       1.2000000000000000 [-]
	 SCS Same-Spin Energy      =      -0.0113175373063021 [Eh]
	 SCS Opposite-Spin Energy  =      -0.1333635185351304 [Eh]
	 SCS Correlation Energy    =      -0.1446810558414325 [Eh]
	 SCS Total Energy          =     -75.9967196133279828 [Eh]
	-----------------------------------------------------------

  -Total Gradient:
     Atom            X                  Y                   Z
    ------   -----------------  -----------------  -----------------
       1       -0.063163862399     0.074173089093     0.000000000000
       2        0.034285126931    -0.120152008257     0.000000000000
       3        0.028878735468     0.045978919164    -0.000000000000

*** Psi4 exiting successfully. Buy a developer a beer!
