                               Psi4 1.2a1.dev429

  ==> Input File <==

--------------------------------------------------------------------------
# density-fitted hartree fock energies and gradients with 6-31g
molecule h2o {
0 1
O 0.0000000000 0.0000000000 0.0000000000
H 0.0000000000 0.0000000000 1.0000000000
H 0.0000000000 0.9958577761 -0.8356238926
}

set basis 6-31g

gradient('mp2')
--------------------------------------------------------------------------

    Molecular point group: cs
  Charge       = 0
  Multiplicity = 1
  Basis Set: 6-31G
    Blend: 6-31G
  Basis Set: (6-31G AUX)
    Blend: CC-PVDZ-JKFIT

    Orbital Energies (a.u.)
    -----------------------

    Doubly Occupied:

       1Ap   -20.565034     2Ap    -1.266221     3Ap    -0.642517
       4Ap    -0.482836     1App   -0.476709

  @DF-RHF Final Energy:   -75.90463535648819

   => Energetics <=

    Nuclear Repulsion Energy =              7.7432864616869246
    One-Electron Energy =                -120.4292088670000425
    Two-Electron Energy =                  36.7812870488249359
    Total Energy =                        -75.9046353564881855
  Basis Set: (6-31G AUX)
    Blend: CC-PVDZ-RI
    Molecular point group: cs

    Geometry (in Angstrom), charge = 0, multiplicity = 1:

       Center              X                  Y                   Z               Mass
    ------------   -----------------  -----------------  -----------------  -----------------
           O          0.055725648405     0.009198065614     0.000000000000    15.994914619560
           H          0.055725648405    -0.990801934386     0.000000000000     1.007825032070
           H         -0.940132127695     0.844821958214     0.000000000000     1.007825032070

  Basis Set: 6-31G
    Blend: 6-31G
  Basis Set: (6-31G AUX)
    Blend: CC-PVDZ-JKFIT
  Basis Set: (6-31G AUX)
    Blend: CC-PVDZ-JKFIT
	 Reference Energy          =     -75.9046353564881855 [Eh]
	 Singles Energy            =      -0.0000000000000000 [Eh]
	 Same-Spin Energy          =      -0.0333815845212641 [Eh]
	 Opposite-Spin Energy      =      -0.1101546657930605 [Eh]
	 Correlation Energy        =      -0.1435362503143246 [Eh]
	 Total Energy              =     -76.0481716068025122 [Eh]

	 ================> DF-SCS-MP2 Energies <==================
	-----------------------------------------------------------
	 SCS Same-Spin Scale       =       0.3333333333333333 [-]
	 SCS Opposite-Spin Scale   =       1.2000000000000000 [-]
	 SCS Same-Spin Energy      =      -0.0111271948404214 [Eh]
	 SCS Opposite-Spin Energy  =      -0.1321855989516726 [Eh]
	 SCS Correlation Energy    =      -0.1433127937920939 [Eh]
	 SCS Total Energy          =     -76.0479481502802770 [Eh]
	-----------------------------------------------------------

  -Total Gradient:
     Atom            X                  Y                   Z
    ------   -----------------  -----------------  -----------------
       1        0.036170402293    -0.075219686658     0.000000000000
       2        0.036075520448    -0.021627415341    -0.000000000000
       3       -0.072245922741     0.096847102000     0.000000000000

*** Psi4 exiting successfully. Buy a developer a beer!
