                               Psi4 1.2a1.dev429

  ==> Input File <==

--------------------------------------------------------------------------
# density-fitted hartree fock energies and gradients with 6-31g
molecule h20 {
0 1
O 0.0000000000 0.0000000000 0.0000000000
H 0.0000000000 0.0000000000 1.0000000000
H 0.0000000000 0.7713451316 -0.9192533317
}

set basis 6-31g

gradient('hf')
--------------------------------------------------------------------------

    Molecular point group: cs
  Charge       = 0
  Multiplicity = 1
  Basis Set: 6-31G
    Blend: 6-31G
  Basis Set: (6-31G AUX)
    Blend: CC-PVDZ-JKFIT

    Orbital Energies (a.u.)
    -----------------------

    Doubly Occupied:

       1Ap   -20.545679     2Ap    -1.263871     3Ap    -0.667096
       4Ap    -0.475776     1App   -0.468811

  @DF-RHF Final Energy:   -75.91956576840302

   => Energetics <=

    Nuclear Repulsion Energy =              8.0170978196245741
    One-Electron Energy =                -121.0308618813633785
    Two-Electron Energy =                  37.0941982933357934
    Total Energy =                        -75.9195657684030181
    Molecular point group: cs

    Geometry (in Angstrom), charge = 0, multiplicity = 1:

       Center              X                  Y                   Z               Mass
    ------------   -----------------  -----------------  -----------------  -----------------
           O          0.043162496326     0.004518376575     0.000000000000    15.994914619560
           H          0.043162496326    -0.995481623425     0.000000000000     1.007825032070
           H         -0.728182635274     0.923771708275     0.000000000000     1.007825032070

  Basis Set: 6-31G
    Blend: 6-31G
  Basis Set: (6-31G AUX)
    Blend: CC-PVDZ-JKFIT

  -Total Gradient:
     Atom            X                  Y                   Z
    ------   -----------------  -----------------  -----------------
       1        0.029364995571    -0.072925772739     0.000000000000
       2        0.036304482976    -0.052402521361     0.000000000000
       3       -0.065669478548     0.125328294100     0.000000000000

*** Psi4 exiting successfully. Buy a developer a beer!
