                               Psi4 1.2a1.dev429

  ==> Input File <==

--------------------------------------------------------------------------
# density-fitted hartree fock energies and gradients with 6-31g
molecule h20 {
0 1
O 0.0000000000 0.0000000000 0.0000000000
H 0.0000000000 0.0000000000 1.2000000000
H 0.0000000000 0.1215537244 -0.6893654271
}

set basis 6-31g

gradient('hf')
--------------------------------------------------------------------------

    Molecular point group: cs
  Charge       = 0
  Multiplicity = 1
  Basis Set: 6-31G
    Blend: 6-31G
  Basis Set: (6-31G AUX)
    Blend: CC-PVDZ-JKFIT

    Orbital Energies (a.u.)
    -----------------------

    Doubly Occupied:

       1Ap   -20.492008     2Ap    -1.356628     3Ap    -0.757541
       4Ap    -0.465532     1App   -0.465163

  @DF-RHF Final Energy:   -75.77197516224732

   => Energetics <=

    Nuclear Repulsion Energy =              9.8550917147013966
    One-Electron Energy =                -124.1803910100735209
    Two-Electron Energy =                  38.5533241331248036
    Total Energy =                        -75.7719751622473154
    Molecular point group: cs

    Geometry (in Angstrom), charge = 0, multiplicity = 1:

       Center              X                  Y                   Z               Mass
    ------------   -----------------  -----------------  -----------------  -----------------
           O          0.006801834831     0.028573801757     0.000000000000    15.994914619560
           H          0.006801834831    -1.171426198243     0.000000000000     1.007825032070
           H         -0.114751889569     0.717939228857     0.000000000000     1.007825032070

  Basis Set: 6-31G
    Blend: 6-31G
  Basis Set: (6-31G AUX)
    Blend: CC-PVDZ-JKFIT

  -Total Gradient:
     Atom            X                  Y                   Z
    ------   -----------------  -----------------  -----------------
       1       -0.155897686511     0.876099231138     0.000000000000
       2        0.011293676174    -0.167502318641     0.000000000000
       3        0.144604010337    -0.708596912497     0.000000000000

*** Psi4 exiting successfully. Buy a developer a beer!
