                               Psi4 1.3.1 release

  ==> Input File <==

--------------------------------------------------------------------------
# density fitted MP2
molecule h2o {
0 1
H 0.0000000000 0.0000000000 1.2000000000
H 0.0000000000 0.9375000000 0.0000000000
O 0.0000000000 0.0000000000 0.0000000000
}

set basis 6-31g
energy('mp2')

--------------------------------------------------------------------------

    Molecular point group: cs

    Geometry (in Angstrom), charge = 0, multiplicity = 1:

       Center              X                  Y                   Z               Mass
    ------------   -----------------  -----------------  -----------------  -----------------
         H            0.052460096854    -1.132851076027     0.000000000000     1.007825032230
         H           -0.885039903146     0.067148923973     0.000000000000     1.007825032230
         O            0.052460096854     0.067148923973     0.000000000000    15.994914619570

  Charge       = 0
  Multiplicity = 1
  Basis Set: 6-31G
    Blend: 6-31G
  Basis Set: (6-31G AUX)
    Blend: CC-PVDZ-JKFIT

    Orbital Energies [Eh]
    ---------------------

    Doubly Occupied:

       1Ap   -20.591415     2Ap    -1.333083     3Ap    -0.644723
       4Ap    -0.559453     1App   -0.506334

  @DF-RHF Final Energy:   -75.93927375621787

   => Energetics <=

    Nuclear Repulsion Energy =              8.3909973855402828
    One-Electron Energy =                -121.3905271432052047
    Two-Electron Energy =                  37.0602560014470441
    Total Energy =                        -75.9392737562178723

  Dipole Moment: [D]
     X:    -2.0568      Y:    -1.9775      Z:     0.0000     Total:     2.8532

  Basis Set: (6-31G AUX)
    Blend: CC-PVDZ-RI
	 Reference Energy          =     -75.9392737562178723 [Eh]
	 Singles Energy            =      -0.0000000000000000 [Eh]
	 Same-Spin Energy          =      -0.0323250692462118 [Eh]
	 Opposite-Spin Energy      =      -0.1080507751334415 [Eh]
	 Correlation Energy        =      -0.1403758443796533 [Eh]
	 Total Energy              =     -76.0796496005975200 [Eh]

	 ================> DF-SCS-MP2 Energies <==================
	-----------------------------------------------------------
	 SCS Same-Spin Scale       =       0.3333333333333333 [-]
	 SCS Opposite-Spin Scale   =       1.2000000000000000 [-]
	 SCS Same-Spin Energy      =      -0.0107750230820706 [Eh]
	 SCS Opposite-Spin Energy  =      -0.1296609301601298 [Eh]
	 SCS Correlation Energy    =      -0.1404359532422004 [Eh]
	 SCS Total Energy          =     -76.0797097094600758 [Eh]
	-----------------------------------------------------------

*** Psi4 exiting successfully. Buy a developer a beer!
