                               Psi4 1.3.1 release

  ==> Input File <==

--------------------------------------------------------------------------
# density fitted hartree fock
molecule h2o {
0 1
H 0.0000000000 0.0000000000 1.1500000000
H 0.0000000000 1.1000000000 0.0000000000
O 0.0000000000 0.0000000000 0.0000000000
}

set basis 6-31g
energy('hf')

--------------------------------------------------------------------------

    Molecular point group: cs

    Geometry (in Angstrom), charge = 0, multiplicity = 1:

       Center              X                  Y                   Z               Mass
    ------------   -----------------  -----------------  -----------------  -----------------
         H            0.061553180308    -1.085648947859     0.000000000000     1.007825032230
         H           -1.038446819692     0.064351052141     0.000000000000     1.007825032230
         O            0.061553180308     0.064351052141     0.000000000000    15.994914619570

  Charge       = 0
  Multiplicity = 1
  Basis Set: 6-31G
    Blend: 6-31G
  Basis Set: (6-31G AUX)
    Blend: CC-PVDZ-JKFIT

    Orbital Energies [Eh]
    ---------------------

    Doubly Occupied:

       1Ap   -20.604146     2Ap    -1.298274     3Ap    -0.609266
       4Ap    -0.560962     1App   -0.504351

  @DF-RHF Final Energy:   -75.93688677122566

   => Energetics <=

    Nuclear Repulsion Energy =              7.8623209127009392
    One-Electron Energy =                -120.4444116871086692
    Two-Electron Energy =                  36.6452040031820729
    Total Energy =                        -75.9368867712256588

  Dipole Moment: [D]
     X:    -2.0432      Y:    -2.0188      Z:     0.0000     Total:     2.8723

*** Psi4 exiting successfully. Buy a developer a beer!
