                               Psi4 1.2a1.dev429

  ==> Input File <==

--------------------------------------------------------------------------
# density-fitted MP2 energies and gradients with 6-31g

molecule h20 {
0 2
C 0.0000000000 0.0000000000 0.0000000000
H 0.0000000000 0.0000000000 1.4000000000
H 0.0000000000 0.8660254038 -0.5000000000
H 0.0000000000 -0.8660254038 -0.5000000000
}

set reference uhf
set basis 6-31g

gradient('mp2')
--------------------------------------------------------------------------

    Molecular point group: c1

    Geometry (in Angstrom), charge = 0, multiplicity = 2:

       Center              X                  Y                   Z               Mass
    ------------   -----------------  -----------------  -----------------  -----------------
           C          0.000000000000     0.000000000000    -0.026833339840    12.000000000000
           H          0.000000000000     0.000000000000     1.373166660160     1.007825032070
           H         -0.000000000000     0.866025403800    -0.526833339840     1.007825032070
           H          0.000000000000    -0.866025403800    -0.526833339840     1.007825032070

  Charge       = 0
  Multiplicity = 2
  Basis Set: 6-31G
    Blend: 6-31G
  Basis Set: (6-31G AUX)
    Blend: CC-PVDZ-JKFIT

    Orbital Energies (a.u.)
    -----------------------

    Alpha Occupied:

       1A    -11.249739     2A     -0.957226     3A     -0.614773
       4A     -0.511156     5A     -0.392854

    Alpha Virtual:

       6A      0.200895     7A      0.306019     8A      0.344061
       9A      0.712125    10A      0.737243    11A      0.786437
      12A      0.991901    13A      1.049018    14A      1.319135
      15A      1.338804

    Beta Occupied:

       1A    -11.221189     2A     -0.852255     3A     -0.593491
       4A     -0.494276

    Beta Virtual:

       5A      0.152992     6A      0.225508     7A      0.319633
       8A      0.355403     9A      0.723700    10A      0.815943
      11A      0.886672    12A      1.002316    13A      1.058437
      14A      1.341160    15A      1.350237

    Final Occupation by Irrep:
              A
    DOCC [     4 ]
    SOCC [     1 ]

  Energy converged.

  @DF-UHF Final Energy:   -39.49420216847516

   => Energetics <=

    Nuclear Repulsion Energy =              9.4304092692718449
    One-Electron Energy =                 -70.9622638177089016
    Two-Electron Energy =                  22.0376523799618944
    Total Energy =                        -39.4942021684751552

  UHF NO Occupations:
  HONO-2 :    3  A 1.9981120
  HONO-1 :    4  A 1.9854463
  HONO-0 :    5  A 1.0000000
  LUNO+0 :    6  A 0.0145537
  LUNO+1 :    7  A 0.0018880
  LUNO+2 :    8  A 0.0010037
  LUNO+3 :    9  A 0.0000004

Properties will be evaluated at   0.000000,   0.000000,   0.000000 Bohr

Properties computed using the SCF density matrix

  Nuclear Dipole Moment: (a.u.)
     X:     0.0000      Y:     0.0000      Z:     0.2995

  Electronic Dipole Moment: (a.u.)
     X:     0.0000      Y:     0.0000      Z:    -0.4084

  Dipole Moment: (a.u.)
     X:     0.0000      Y:     0.0000      Z:    -0.1089     Total:     0.1089

  Dipole Moment: (Debye)
     X:     0.0000      Y:     0.0000      Z:    -0.2768     Total:     0.2768

*** tstop() called on adabbott at Thu Apr 12 13:56:21 2018
Module time:
	user time   =       0.17 seconds =       0.00 minutes
	system time =       0.21 seconds =       0.00 minutes
	total time  =          0 seconds =       0.00 minutes
Total time:
	user time   =       0.17 seconds =       0.00 minutes
	system time =       0.21 seconds =       0.00 minutes
	total time  =          0 seconds =       0.00 minutes
   => Loading Basis Set <=

    Name: (6-31G AUX)
    Role: JKFIT
    Keyword: DF_BASIS_SCF
    atoms 1   entry C          line   121 file /home/adabbott/Git/psi4/objdir/stage/usr/local/psi4/share/psi4/basis/cc-pvdz-jkfit.gbs
    atoms 2-4 entry H          line    51 file /home/adabbott/Git/psi4/objdir/stage/usr/local/psi4/share/psi4/basis/cc-pvdz-jkfit.gbs

   => Loading Basis Set <=

    Name: (6-31G AUX)
    Role: RIFIT
    Keyword: DF_BASIS_CC
    atoms 1   entry C          line   159 file /home/adabbott/Git/psi4/objdir/stage/usr/local/psi4/share/psi4/basis/cc-pvdz-ri.gbs
    atoms 2-4 entry H          line    19 file /home/adabbott/Git/psi4/objdir/stage/usr/local/psi4/share/psi4/basis/cc-pvdz-ri.gbs

*** tstart() called on adabbott
*** at Thu Apr 12 13:56:21 2018

  Options:
  ----------------------------------------------------------------------------
  ACTIVE                      => [  ]
  BASIS_RELATIVISTIC          => (empty)
  BENCH                       => 0
  CC_DIIS_MAX_VECS            => 6
  CC_DIIS_MIN_VECS            => 2
  CC_LAMBDA                   => FALSE
  CC_MAXITER                  => 50
  CC_TYPE                     => CONV
  CHOLESKY                    => FALSE
  CHOLESKY_TOLERANCE          => 0.0001
  CI_TYPE                     => CONV
  COMPUT_S2                   => FALSE
  CUBEPROP_BASIS_FUNCTIONS    => [  ]
  CUBEPROP_FILEPATH           => .
  CUBEPROP_ORBITALS           => [  ]
  CUBEPROP_TASKS              => [  ]
  CUBIC_BASIS_TOLERANCE       => 1e-12
  CUBIC_BLOCK_MAX_POINTS      => 1000
  CUBIC_GRID_OVERAGE          => [  ]
  CUBIC_GRID_SPACING          => [  ]
  CUTOFF                      => 8
  DEBUG                       => 0
  DERTYPE                     => FIRST           !
  DF_BASIS_CC                 => (empty)
  DIE_IF_NOT_CONVERGED        => TRUE
  DKH_ORDER                   => 2
  DOCC                        => [  ]
  DO_DIIS                     => TRUE
  DO_LEVEL_SHIFT              => TRUE
  DO_SCS                      => FALSE           !
  DO_SOS                      => FALSE           !
  E3_SCALE                    => 0.25
  EKT_IP                      => FALSE
  EXTERNAL_POTENTIAL_SYMMETRY => FALSE
  E_CONVERGENCE               => 1e-08           !
  FREEZE_CORE                 => FALSE
  FROZEN_DOCC                 => [  ]
  FROZEN_UOCC                 => [  ]
  HESS_TYPE                   => HF
  INTEGRAL_CUTOFF             => 9
  INTEGRAL_PACKAGE            => LIBINT
  LEVEL_SHIFT                 => 0.02
  LINEQ_SOLVER                => CDGESV
  LITERAL_CFOUR               => (empty)
  MAT_NUM_COLUMN_PRINT        => 5
  MAX_MOGRAD_CONVERGENCE      => 0.001
  MOLDEN_WITH_VIRTUAL         => TRUE
  MOLDEN_WRITE                => FALSE
  MO_DIIS_NUM_VECS            => 6
  MO_MAXITER                  => 50
  MO_STEP_MAX                 => 0.5
  MP2_AMP_TYPE                => DIRECT
  MP2_OS_SCALE                => 1.2
  MP2_SOS_SCALE               => 1.3
  MP2_SOS_SCALE2              => 1.2
  MP2_SS_SCALE                => 0.333333
  MP2_TYPE                    => DF
  MP_TYPE                     => CONV
  NAT_ORBS                    => FALSE
  NUM_FROZEN_DOCC             => 0
  NUM_FROZEN_UOCC             => 0
  OCC_ORBS_PRINT              => FALSE
  OEPROP                      => FALSE
  OO_SCALE                    => 0.01
  OPT_METHOD                  => QNR
  ORB_OPT                     => FALSE           !
  ORB_RESP_SOLVER             => PCG
  ORTH_TYPE                   => MGS
  PCG_BETA_TYPE               => FLETCHER_REEVES
  PCG_CONVERGENCE             => 1e-06
  PCG_MAXITER                 => 50
  PCM                         => FALSE
  PCM_CC_TYPE                 => PTE
  PCM_SCF_TYPE                => TOTAL
  PPL_TYPE                    => AUTO
  PRINT                       => 1
  PRINT_NOONS                 => 3
  PROPERTIES                  => [  ]
  PROPERTIES_ORIGIN           => [  ]
  PUREAM                      => TRUE
  QCHF                        => FALSE
  QC_MODULE                   => (empty)
  RAS1                        => [  ]
  RAS2                        => [  ]
  RAS3                        => [  ]
  RAS4                        => [  ]
  READ_SCF_3INDEX             => TRUE
  REGULARIZATION              => FALSE
  REG_PARAM                   => 0.4
  RELATIVISTIC                => NO
  RESTRICTED_DOCC             => [  ]
  RESTRICTED_UOCC             => [  ]
  RMS_MOGRAD_CONVERGENCE      => 1e-06
  R_CONVERGENCE               => 1e-05
  SCS_TYPE                    => SCS
  SOCC                        => [  ]
  SOS_TYPE                    => SOS
  TRIPLES_IABC_TYPE           => DISK
  UNITS                       => ANGSTROMS
  WFN                         => SCF
  WFN_TYPE                    => DF-OMP2         !
  WRITER_FILE_LABEL           => (empty)

 ==============================================================================
 ==============================================================================
 ==============================================================================

                       DF-MP2
              Program Written by Ugur Bozkaya
              Latest Revision April 17, 2016

 ==============================================================================
 ==============================================================================
 ==============================================================================

	MO Hessian type is changed to 'APPROX_DIAG'
	MO spaces...

	 FC   AOCC   BOCC  AVIR   BVIR   FV
	------------------------------------------
	  0     5     4    10     11     0
	Reading DF integrals from disk ...
	Number of basis functions in the DF-HF basis: 156
	Number of basis functions in the DF-CC basis:  98

	Available memory                      :    500.00 MB
	Minimum required memory for amplitudes:      0.06 MB

	Computing DF-MP2 energy using SCF MOs (Canonical DF-MP2)...
	=======================================================================
	Nuclear Repulsion Energy (a.u.)    :     9.43040926927184
	DF-HF Energy (a.u.)                :   -39.49420216847516
	REF Energy (a.u.)                  :   -39.49420216847516
	Alpha-Alpha Contribution (a.u.)    :    -0.00942730797836
	Alpha-Beta Contribution (a.u.)     :    -0.06471121829174
	Beta-Beta Contribution (a.u.)      :    -0.00360717794329
	Scaled_SS Correlation Energy (a.u.):    -0.00434482864055
	Scaled_OS Correlation Energy (a.u.):    -0.07765346195008
	DF-SCS-MP2 Total Energy (a.u.)     :   -39.57620045906580
	DF-SOS-MP2 Total Energy (a.u.)     :   -39.57832675225442
	DF-SCSN-MP2 Total Energy (a.u.)    :   -39.51714286369726
	DF-MP2 Correlation Energy (a.u.)   :    -0.07774570421338
	DF-MP2 Total Energy (a.u.)         :   -39.57194787268854
	=======================================================================

	Computing unrelaxed response density matrices...

	Forming independent-pairs...
	Number of alpha independent-pairs: 50
	Number of beta independent-pairs : 44
	Computing the generalized Fock matrix (GFM)...
	Computing the orbital gradient...
	Forming effective orbital gradient...
	Solving orbital Z-vector equations...

	            PCG Solver
	   ------------------------------
	Iter     RMS Z Vector        RMS Residual
	----    ---------------    ---------------
	  1         4.28e-03         2.01e-03
	  2         1.89e-03         1.09e-03
	  3         6.79e-04         2.31e-04
	  4         1.68e-04         6.41e-05
	  5         4.52e-05         1.86e-05
	  6         8.83e-06         3.00e-06
	  7         1.78e-06         5.71e-07
	  8         1.84e-07         1.05e-07

	Computing the relaxed PDMs and GFM...

*** tstop() called on adabbott at Thu Apr 12 13:56:21 2018
Module time:
	user time   =       0.15 seconds =       0.00 minutes
	system time =       0.57 seconds =       0.01 minutes
	total time  =          0 seconds =       0.00 minutes
Total time:
	user time   =       0.45 seconds =       0.01 minutes
	system time =       1.06 seconds =       0.02 minutes
	total time  =          0 seconds =       0.00 minutes

*** tstart() called on adabbott
*** at Thu Apr 12 13:56:21 2018

 ==============================================================================
 ==============================================================================
 ==============================================================================

                         DFGRAD
            A General Analytic Gradients Code
               for Density-Fitted Methods
                   by Ugur Bozkaya
              Latest Revision October 7, 2015

 ==============================================================================
 ==============================================================================
 ==============================================================================

	Analytic gradients computation is starting...
	Forming Gamma^tilde...
	Backtransforming OPDM, TPDM, and GFM to the AO basis...
	Computing analytic gradients...

  -Nuclear Gradient:
     Atom            X                  Y                   Z
    ------   -----------------  -----------------  -----------------
       1        0.000000000000     0.000000000000    -0.822940951057
       2        0.000000000000     0.000000000000    -0.974114442502
       3        0.000000000000    -1.575051796819     0.898527696779
       4       -0.000000000000     1.575051796819     0.898527696779

  -Kinetic Gradient:
     Atom            X                  Y                   Z
    ------   -----------------  -----------------  -----------------
       1        0.000000000000     0.000000000000    -0.262416559867
       2       -0.000000000000    -0.000000000000    -0.214263468167
       3        0.000000000000    -0.393349609198     0.238340014017
       4       -0.000000000000     0.393349609198     0.238340014017

  -Potential Gradient:
     Atom            X                  Y                   Z
    ------   -----------------  -----------------  -----------------
       1       -0.000000000000    -0.000000000002     1.482050356070
       2        0.000000000000     0.000000000000     3.025277482223
       3       -0.000000000000     3.717537200132    -2.253663919147
       4        0.000000000000    -3.717537200130    -2.253663919147

  -Overlap Gradient:
     Atom            X                  Y                   Z
    ------   -----------------  -----------------  -----------------
       1        0.000000000000     0.000000000000    -0.084653566486
       2       -0.000000000000    -0.000000000000    -0.159001477660
       3       -0.000000000000    -0.183830120103     0.121827522073
       4       -0.000000000000     0.183830120103     0.121827522073

  -One-Electron Gradient:
     Atom            X                  Y                   Z
    ------   -----------------  -----------------  -----------------
       1       -0.000000000000    -0.000000000001     1.219633796203
       2        0.000000000000     0.000000000000     2.811014014056
       3       -0.000000000000     3.324187590933    -2.015323905129
       4        0.000000000000    -3.324187590932    -2.015323905129

  -Two-Electron Gradient:
     Atom            X                  Y                   Z
    ------   -----------------  -----------------  -----------------
       1        0.000000000000     0.000000000001    -0.476328283677
       2       -0.000000000000    -0.000000000000    -1.576001323653
       3        0.000000000000    -1.637021316921     1.026164803665
       4       -0.000000000000     1.637021316920     1.026164803665

  -Total Gradient:
     Atom            X                  Y                   Z
    ------   -----------------  -----------------  -----------------
       1       -0.000000000000     0.000000000000    -0.164289005017
       2       -0.000000000000     0.000000000000     0.101896770242
       3        0.000000000000    -0.071715642910     0.031196117388
       4        0.000000000000     0.071715642910     0.031196117388

*** tstop() called on adabbott at Thu Apr 12 13:56:21 2018
Module time:
	user time   =       0.21 seconds =       0.00 minutes
	system time =       0.51 seconds =       0.01 minutes
	total time  =          0 seconds =       0.00 minutes
Total time:
	user time   =       0.66 seconds =       0.01 minutes
	system time =       1.57 seconds =       0.03 minutes
	total time  =          0 seconds =       0.00 minutes

*** Psi4 exiting successfully. Buy a developer a beer!
