                               Psi4 1.2a1.dev429

  ==> Input File <==

--------------------------------------------------------------------------
# density-fitted hartree fock energies and gradients with 6-31g
molecule h20 {
0 1
O 0.0000000000 0.0000000000 0.0000000000
H 0.0000000000 0.0000000000 0.7000000000
H 0.0000000000 0.7517540966 -0.2736161147
}

set basis 6-31g

gradient('hf')
--------------------------------------------------------------------------

    Molecular point group: cs
  Charge       = 0
  Multiplicity = 1
  Basis Set: 6-31G
    Blend: 6-31G
  Basis Set: (6-31G AUX)
    Blend: CC-PVDZ-JKFIT

    Orbital Energies (a.u.)
    -----------------------

    Doubly Occupied:

       1Ap   -20.519258     2Ap    -1.495503     3Ap    -0.858464
       4Ap    -0.580939     1App   -0.518791

  @DF-RHF Final Energy:   -75.82449400712697

   => Energetics <=

    Nuclear Repulsion Energy =             11.7697138736516020
    One-Electron Energy =                -127.2425067637288549
    Two-Electron Energy =                  39.6482988829502787
    Total Energy =                        -75.8244940071269866
    Molecular point group: cs

    Geometry (in Angstrom), charge = 0, multiplicity = 1:

       Center              X                  Y                   Z               Mass
    ------------   -----------------  -----------------  -----------------  -----------------
           O          0.042066232226     0.023859349244     0.000000000000    15.994914619560
           H          0.042066232226    -0.676140650756     0.000000000000     1.007825032070
           H         -0.709687864374     0.297475463944     0.000000000000     1.007825032070

  Basis Set: 6-31G
    Blend: 6-31G
  Basis Set: (6-31G AUX)
    Blend: CC-PVDZ-JKFIT

  -Total Gradient:
     Atom            X                  Y                   Z
    ------   -----------------  -----------------  -----------------
       1       -0.233892916784    -0.610310248180     0.000000000000
       2       -0.028048517551     0.731766666213     0.000000000000
       3        0.261941434335    -0.121456418032     0.000000000000

*** Psi4 exiting successfully. Buy a developer a beer!
