                               Psi4 1.2a1.dev429

  ==> Input File <==

--------------------------------------------------------------------------
# density-fitted hartree fock energies and gradients with 6-31g
molecule h2o {
0 1
O 0.0000000000 0.0000000000 0.0000000000
H 0.0000000000 0.0000000000 0.9000000000
H 0.0000000000 0.7878462024 -0.1389185421
}

set basis 6-31g

gradient('mp2')
--------------------------------------------------------------------------

    Molecular point group: cs
  Charge       = 0
  Multiplicity = 1
  Basis Set: 6-31G
    Blend: 6-31G
  Basis Set: (6-31G AUX)
    Blend: CC-PVDZ-JKFIT

    Orbital Energies (a.u.)
    -----------------------

    Doubly Occupied:

       1Ap   -20.541796     2Ap    -1.432658     3Ap    -0.764639
       4Ap    -0.584869     1App   -0.511000

  @DF-RHF Final Energy:   -75.94106961146706

   => Energetics <=

    Nuclear Repulsion Energy =             10.4014235162241260
    One-Electron Energy =                -125.0150637769168469
    Two-Electron Energy =                  38.6725706492256620
    Total Energy =                        -75.9410696114670571
  Basis Set: (6-31G AUX)
    Blend: CC-PVDZ-RI
    Molecular point group: cs

    Geometry (in Angstrom), charge = 0, multiplicity = 1:

       Center              X                  Y                   Z               Mass
    ------------   -----------------  -----------------  -----------------  -----------------
           O          0.044085853950     0.042588167455     0.000000000000    15.994914619560
           H          0.044085853950    -0.857411832545     0.000000000000     1.007825032070
           H         -0.743760348450     0.181506709555     0.000000000000     1.007825032070

  Basis Set: 6-31G
    Blend: 6-31G
  Basis Set: (6-31G AUX)
    Blend: CC-PVDZ-JKFIT
  Basis Set: (6-31G AUX)
    Blend: CC-PVDZ-JKFIT
	 Reference Energy          =     -75.9410696114670571 [Eh]
	 Singles Energy            =      -0.0000000000000000 [Eh]
	 Same-Spin Energy          =      -0.0277112789755403 [Eh]
	 Opposite-Spin Energy      =      -0.0913047889266637 [Eh]
	 Correlation Energy        =      -0.1190160679022041 [Eh]
	 Total Energy              =     -76.0600856793692657 [Eh]

	 ================> DF-SCS-MP2 Energies <==================
	-----------------------------------------------------------
	 SCS Same-Spin Scale       =       0.3333333333333333 [-]
	 SCS Opposite-Spin Scale   =       1.2000000000000000 [-]
	 SCS Same-Spin Energy      =      -0.0092370929918468 [Eh]
	 SCS Opposite-Spin Energy  =      -0.1095657467119965 [Eh]
	 SCS Correlation Energy    =      -0.1188028397038433 [Eh]
	 SCS Total Energy          =     -76.0598724511709037 [Eh]
	-----------------------------------------------------------

  -Total Gradient:
     Atom            X                  Y                   Z
    ------   -----------------  -----------------  -----------------
       1       -0.282344834811    -0.005766697674    -0.000000000000
       2       -0.031902020861     0.097620324915    -0.000000000000
       3        0.314246855672    -0.091853627240     0.000000000000

*** Psi4 exiting successfully. Buy a developer a beer!
