                               Psi4 1.3.1 release

  ==> Input File <==

--------------------------------------------------------------------------
# density fitted MP2
molecule h2o {
0 1
H 0.0000000000 0.0000000000 1.1125000000
H 0.0000000000 1.0250000000 0.0000000000
O 0.0000000000 0.0000000000 0.0000000000
}

set basis 6-31g
energy('mp2')

--------------------------------------------------------------------------

    Molecular point group: cs

    Geometry (in Angstrom), charge = 0, multiplicity = 1:

       Center              X                  Y                   Z               Mass
    ------------   -----------------  -----------------  -----------------  -----------------
         H            0.057356372560    -1.050247351734     0.000000000000     1.007825032230
         H           -0.967643627440     0.062252648266     0.000000000000     1.007825032230
         O            0.057356372560     0.062252648266     0.000000000000    15.994914619570

  Charge       = 0
  Multiplicity = 1
  Basis Set: 6-31G
    Blend: 6-31G
  Basis Set: (6-31G AUX)
    Blend: CC-PVDZ-JKFIT

    Orbital Energies [Eh]
    ---------------------

    Doubly Occupied:

       1Ap   -20.593137     2Ap    -1.320654     3Ap    -0.632768
       4Ap    -0.569680     1App   -0.505088

  @DF-RHF Final Energy:   -75.95385783634391

   => Energetics <=

    Nuclear Repulsion Energy =              8.2853043101199368
    One-Electron Energy =                -121.2356691812721010
    Two-Electron Energy =                  36.9965070348082392
    Total Energy =                        -75.9538578363439285

  Dipole Moment: [D]
     X:    -2.0465      Y:    -2.0169      Z:     0.0000     Total:     2.8733

  Basis Set: (6-31G AUX)
    Blend: CC-PVDZ-RI
	 Reference Energy          =     -75.9538578363439143 [Eh]
	 Singles Energy            =      -0.0000000000000000 [Eh]
	 Same-Spin Energy          =      -0.0326798550472302 [Eh]
	 Opposite-Spin Energy      =      -0.1083418669667553 [Eh]
	 Correlation Energy        =      -0.1410217220139855 [Eh]
	 Total Energy              =     -76.0948795583579027 [Eh]

	 ================> DF-SCS-MP2 Energies <==================
	-----------------------------------------------------------
	 SCS Same-Spin Scale       =       0.3333333333333333 [-]
	 SCS Opposite-Spin Scale   =       1.2000000000000000 [-]
	 SCS Same-Spin Energy      =      -0.0108932850157434 [Eh]
	 SCS Opposite-Spin Energy  =      -0.1300102403601064 [Eh]
	 SCS Correlation Energy    =      -0.1409035253758498 [Eh]
	 SCS Total Energy          =     -76.0947613617197618 [Eh]
	-----------------------------------------------------------

*** Psi4 exiting successfully. Buy a developer a beer!
