                               Psi4 1.2a1.dev429

  ==> Input File <==

--------------------------------------------------------------------------
# density-fitted hartree fock energies and gradients with 6-31g
molecule h2o {
0 1
O 0.0000000000 0.0000000000 0.0000000000
H 0.0000000000 0.0000000000 1.2000000000
H 0.0000000000 0.4500000000 -0.7794228634
}

set basis 6-31g

gradient('mp2')
--------------------------------------------------------------------------

    Molecular point group: cs
  Charge       = 0
  Multiplicity = 1
  Basis Set: 6-31G
    Blend: 6-31G
  Basis Set: (6-31G AUX)
    Blend: CC-PVDZ-JKFIT

    Orbital Energies (a.u.)
    -----------------------

    Doubly Occupied:

       1Ap   -20.524013     2Ap    -1.282377     3Ap    -0.697965
       4Ap    -0.467629     1App   -0.463874

  @DF-RHF Final Energy:   -75.90851549624232

   => Energetics <=

    Nuclear Repulsion Energy =              8.4923329135856367
    One-Electron Energy =                -121.9299824951081490
    Two-Electron Energy =                  37.5291340852801909
    Total Energy =                        -75.9085154962423161
  Basis Set: (6-31G AUX)
    Blend: CC-PVDZ-RI
    Molecular point group: cs

    Geometry (in Angstrom), charge = 0, multiplicity = 1:

       Center              X                  Y                   Z               Mass
    ------------   -----------------  -----------------  -----------------  -----------------
           O          0.025180846486     0.023534418472     0.000000000000    15.994914619560
           H          0.025180846486    -1.176465581528     0.000000000000     1.007825032070
           H         -0.424819153514     0.802957281872     0.000000000000     1.007825032070

  Basis Set: 6-31G
    Blend: 6-31G
  Basis Set: (6-31G AUX)
    Blend: CC-PVDZ-JKFIT
  Basis Set: (6-31G AUX)
    Blend: CC-PVDZ-JKFIT
	 Reference Energy          =     -75.9085154962423161 [Eh]
	 Singles Energy            =      -0.0000000000000000 [Eh]
	 Same-Spin Energy          =      -0.0318337506532926 [Eh]
	 Opposite-Spin Energy      =      -0.1013318056930445 [Eh]
	 Correlation Energy        =      -0.1331655563463371 [Eh]
	 Total Energy              =     -76.0416810525886575 [Eh]

	 ================> DF-SCS-MP2 Energies <==================
	-----------------------------------------------------------
	 SCS Same-Spin Scale       =       0.3333333333333333 [-]
	 SCS Opposite-Spin Scale   =       1.2000000000000000 [-]
	 SCS Same-Spin Energy      =      -0.0106112502177642 [Eh]
	 SCS Opposite-Spin Energy  =      -0.1215981668316534 [Eh]
	 SCS Correlation Energy    =      -0.1322094170494176 [Eh]
	 SCS Total Energy          =     -76.0407249132917400 [Eh]
	-----------------------------------------------------------

  -Total Gradient:
     Atom            X                  Y                   Z
    ------   -----------------  -----------------  -----------------
       1       -0.106147631284     0.175379049640     0.000000000000
       2        0.031136227631    -0.128485430043    -0.000000000000
       3        0.075011403653    -0.046893619597    -0.000000000000

*** Psi4 exiting successfully. Buy a developer a beer!
