                               Psi4 1.2a1.dev429

  ==> Input File <==

--------------------------------------------------------------------------
# density-fitted hartree fock energies and gradients with 6-31g
molecule h20 {
0 1
O 0.0000000000 0.0000000000 0.0000000000
H 0.0000000000 0.0000000000 1.0000000000
H 0.0000000000 0.5362311102 -0.4499513268
}

set basis 6-31g

gradient('hf')
--------------------------------------------------------------------------

    Molecular point group: cs
  Charge       = 0
  Multiplicity = 1
  Basis Set: 6-31G
    Blend: 6-31G
  Basis Set: (6-31G AUX)
    Blend: CC-PVDZ-JKFIT

    Orbital Energies (a.u.)
    -----------------------

    Doubly Occupied:

       1Ap   -20.522008     2Ap    -1.420439     3Ap    -0.815482
       4Ap    -0.529083     1App   -0.500702

  @DF-RHF Final Energy:   -75.85122947754334

   => Energetics <=

    Nuclear Repulsion Energy =             10.6234604474179992
    One-Electron Energy =                -125.3739525212349406
    Two-Electron Energy =                  38.8992625962736014
    Total Energy =                        -75.8512294775433418
    Molecular point group: cs

    Geometry (in Angstrom), charge = 0, multiplicity = 1:

       Center              X                  Y                   Z               Mass
    ------------   -----------------  -----------------  -----------------  -----------------
           O          0.030006118371     0.030779313777     0.000000000000    15.994914619560
           H          0.030006118371    -0.969220686223     0.000000000000     1.007825032070
           H         -0.506224991829     0.480730640577     0.000000000000     1.007825032070

  Basis Set: 6-31G
    Blend: 6-31G
  Basis Set: (6-31G AUX)
    Blend: CC-PVDZ-JKFIT

  -Total Gradient:
     Atom            X                  Y                   Z
    ------   -----------------  -----------------  -----------------
       1       -0.590795752931     0.517486912815     0.000000000000
       2        0.017227070070    -0.068331846978     0.000000000000
       3        0.573568682861    -0.449155065838     0.000000000000

*** Psi4 exiting successfully. Buy a developer a beer!
