                               Psi4 1.2a1.dev429

  ==> Input File <==

--------------------------------------------------------------------------
# density-fitted hartree fock energies and gradients with 6-31g
molecule h2o {
0 1
O 0.0000000000 0.0000000000 0.0000000000
H 0.0000000000 0.0000000000 1.4000000000
H 0.0000000000 0.8660254038 -0.5000000000
}

set basis 6-31g

gradient('mp2')
--------------------------------------------------------------------------

    Molecular point group: cs
  Charge       = 0
  Multiplicity = 1
  Basis Set: 6-31G
    Blend: 6-31G
  Basis Set: (6-31G AUX)
    Blend: CC-PVDZ-JKFIT

    Orbital Energies (a.u.)
    -----------------------

    Doubly Occupied:

       1Ap   -20.583592     2Ap    -1.270997     3Ap    -0.625119
       4Ap    -0.486673     1App   -0.485595

  @DF-RHF Final Energy:   -75.88795246605858

   => Energetics <=

    Nuclear Repulsion Energy =              7.5107173519973225
    One-Electron Energy =                -119.8933858755127204
    Two-Electron Energy =                  36.4947160574568272
    Total Energy =                        -75.8879524660585645
  Basis Set: (6-31G AUX)
    Blend: CC-PVDZ-RI
    Molecular point group: cs

    Geometry (in Angstrom), charge = 0, multiplicity = 1:

       Center              X                  Y                   Z               Mass
    ------------   -----------------  -----------------  -----------------  -----------------
           O          0.048460561658     0.050361692973     0.000000000000    15.994914619560
           H          0.048460561658    -1.349638307027     0.000000000000     1.007825032070
           H         -0.817564842142     0.550361692973     0.000000000000     1.007825032070

  Basis Set: 6-31G
    Blend: 6-31G
  Basis Set: (6-31G AUX)
    Blend: CC-PVDZ-JKFIT
  Basis Set: (6-31G AUX)
    Blend: CC-PVDZ-JKFIT
	 Reference Energy          =     -75.8879524660585787 [Eh]
	 Singles Energy            =      -0.0000000000000000 [Eh]
	 Same-Spin Energy          =      -0.0340069660431112 [Eh]
	 Opposite-Spin Energy      =      -0.1150698070760406 [Eh]
	 Correlation Energy        =      -0.1490767731191518 [Eh]
	 Total Energy              =     -76.0370292391777269 [Eh]

	 ================> DF-SCS-MP2 Energies <==================
	-----------------------------------------------------------
	 SCS Same-Spin Scale       =       0.3333333333333333 [-]
	 SCS Opposite-Spin Scale   =       1.2000000000000000 [-]
	 SCS Same-Spin Energy      =      -0.0113356553477037 [Eh]
	 SCS Opposite-Spin Energy  =      -0.1380837684912488 [Eh]
	 SCS Correlation Energy    =      -0.1494194238389525 [Eh]
	 SCS Total Energy          =     -76.0373718898975284 [Eh]
	-----------------------------------------------------------

  -Total Gradient:
     Atom            X                  Y                   Z
    ------   -----------------  -----------------  -----------------
       1       -0.021217519923     0.080821509969    -0.000000000000
       2        0.019806192133    -0.112024988878     0.000000000000
       3        0.001411327790     0.031203478909     0.000000000000

*** Psi4 exiting successfully. Buy a developer a beer!
