                               Psi4 1.2a1.dev429

  ==> Input File <==

--------------------------------------------------------------------------
# density-fitted hartree fock energies and gradients with 6-31g
molecule h2o {
0 1
O 0.0000000000 0.0000000000 0.0000000000
H 0.0000000000 0.0000000000 1.2000000000
H 0.0000000000 0.3420201433 -0.9396926208
}

set basis 6-31g

gradient('mp2')
--------------------------------------------------------------------------

    Molecular point group: cs
  Charge       = 0
  Multiplicity = 1
  Basis Set: 6-31G
    Blend: 6-31G
  Basis Set: (6-31G AUX)
    Blend: CC-PVDZ-JKFIT

    Orbital Energies (a.u.)
    -----------------------

    Doubly Occupied:

       1Ap   -20.517899     2Ap    -1.240938     3Ap    -0.668014
       4Ap    -0.449920     1App   -0.449611

  @DF-RHF Final Energy:   -75.89650619316289

   => Energetics <=

    Nuclear Repulsion Energy =              8.0054800886514492
    One-Electron Energy =                -121.1512085722183372
    Two-Electron Energy =                  37.2492222904039920
    Total Energy =                        -75.8965061931628924
  Basis Set: (6-31G AUX)
    Blend: CC-PVDZ-RI
    Molecular point group: cs

    Geometry (in Angstrom), charge = 0, multiplicity = 1:

       Center              X                  Y                   Z               Mass
    ------------   -----------------  -----------------  -----------------  -----------------
           O          0.019138570497     0.014566133678     0.000000000000    15.994914619560
           H          0.019138570497    -1.185433866322     0.000000000000     1.007825032070
           H         -0.322881572803     0.954258754478     0.000000000000     1.007825032070

  Basis Set: 6-31G
    Blend: 6-31G
  Basis Set: (6-31G AUX)
    Blend: CC-PVDZ-JKFIT
  Basis Set: (6-31G AUX)
    Blend: CC-PVDZ-JKFIT
	 Reference Energy          =     -75.8965061931628924 [Eh]
	 Singles Energy            =      -0.0000000000000000 [Eh]
	 Same-Spin Energy          =      -0.0325588655606173 [Eh]
	 Opposite-Spin Energy      =      -0.1027593516710503 [Eh]
	 Correlation Energy        =      -0.1353182172316676 [Eh]
	 Total Energy              =     -76.0318244103945631 [Eh]

	 ================> DF-SCS-MP2 Energies <==================
	-----------------------------------------------------------
	 SCS Same-Spin Scale       =       0.3333333333333333 [-]
	 SCS Opposite-Spin Scale   =       1.2000000000000000 [-]
	 SCS Same-Spin Energy      =      -0.0108529551868724 [Eh]
	 SCS Opposite-Spin Energy  =      -0.1233112220052603 [Eh]
	 SCS Correlation Energy    =      -0.1341641771921327 [Eh]
	 SCS Total Energy          =     -76.0306703703550255 [Eh]
	-----------------------------------------------------------

  -Total Gradient:
     Atom            X                  Y                   Z
    ------   -----------------  -----------------  -----------------
       1       -0.046308264164     0.079012909939     0.000000000000
       2        0.028533171880    -0.130286744000     0.000000000000
       3        0.017775092283     0.051273834060    -0.000000000000

*** Psi4 exiting successfully. Buy a developer a beer!
