                               Psi4 1.2a1.dev429

  ==> Input File <==

--------------------------------------------------------------------------
# density-fitted hartree fock energies and gradients with 6-31g
molecule h2o {
0 1
O 0.0000000000 0.0000000000 0.0000000000
H 0.0000000000 0.0000000000 1.1000000000
H 0.0000000000 0.7500000000 -1.2990381057
}

set basis 6-31g

gradient('mp2')
--------------------------------------------------------------------------

    Molecular point group: cs
  Charge       = 0
  Multiplicity = 1
  Basis Set: 6-31G
    Blend: 6-31G
  Basis Set: (6-31G AUX)
    Blend: CC-PVDZ-JKFIT

    Orbital Energies (a.u.)
    -----------------------

    Doubly Occupied:

       1Ap   -20.551416     2Ap    -1.208754     3Ap    -0.581888
       1App   -0.451543     4Ap    -0.433512

  @DF-RHF Final Energy:   -75.81166513581555

   => Energetics <=

    Nuclear Repulsion Energy =              6.8813706038847062
    One-Electron Energy =                -118.9318467380748814
    Two-Electron Energy =                  36.2388109983746318
    Total Energy =                        -75.8116651358155451
  Basis Set: (6-31G AUX)
    Blend: CC-PVDZ-RI
    Molecular point group: cs

    Geometry (in Angstrom), charge = 0, multiplicity = 1:

       Center              X                  Y                   Z               Mass
    ------------   -----------------  -----------------  -----------------  -----------------
           O          0.041968077477    -0.011137662188     0.000000000000    15.994914619560
           H          0.041968077477    -1.111137662188     0.000000000000     1.007825032070
           H         -0.708031922523     1.287900443512     0.000000000000     1.007825032070

  Basis Set: 6-31G
    Blend: 6-31G
  Basis Set: (6-31G AUX)
    Blend: CC-PVDZ-JKFIT
  Basis Set: (6-31G AUX)
    Blend: CC-PVDZ-JKFIT
	 Reference Energy          =     -75.8116651358155451 [Eh]
	 Singles Energy            =      -0.0000000000000000 [Eh]
	 Same-Spin Energy          =      -0.0353837163744207 [Eh]
	 Opposite-Spin Energy      =      -0.1188021058408664 [Eh]
	 Correlation Energy        =      -0.1541858222152871 [Eh]
	 Total Energy              =     -75.9658509580308277 [Eh]

	 ================> DF-SCS-MP2 Energies <==================
	-----------------------------------------------------------
	 SCS Same-Spin Scale       =       0.3333333333333333 [-]
	 SCS Opposite-Spin Scale   =       1.2000000000000000 [-]
	 SCS Same-Spin Energy      =      -0.0117945721248069 [Eh]
	 SCS Opposite-Spin Energy  =      -0.1425625270090397 [Eh]
	 SCS Correlation Energy    =      -0.1543570991338466 [Eh]
	 SCS Total Energy          =     -75.9660222349493921 [Eh]
	-----------------------------------------------------------

  -Total Gradient:
     Atom            X                  Y                   Z
    ------   -----------------  -----------------  -----------------
       1       -0.027468479933    -0.032702461341    -0.000000000000
       2        0.048433915617    -0.074647141619    -0.000000000000
       3       -0.020965435684     0.107349602960     0.000000000000

*** Psi4 exiting successfully. Buy a developer a beer!
