                               Psi4 1.2a1.dev429

  ==> Input File <==

--------------------------------------------------------------------------
# density-fitted hartree fock energies and gradients with 6-31g
molecule o2 {
0 3
O 0.0000000000 0.0000000000 0.0000000000
O 0.0000000000 0.0000000000 1.4080808081
}

set basis 6-31g
set reference rohf

gradient('scf')
--------------------------------------------------------------------------

    Molecular point group: d2h
  Charge       = 0
  Multiplicity = 3
  Basis Set: 6-31G
    Blend: 6-31G
  Basis Set: (6-31G AUX)
    Blend: CC-PVDZ-JKFIT

    Orbital Energies (a.u.)
    -----------------------

    Doubly Occupied:

       1Ag   -20.779156     1B1u  -20.778701     2Ag    -1.532140
       2B1u   -1.166882     3Ag    -0.666464     1B3u   -0.648264
       1B2u   -0.648264

    Singly Occupied:

       1B3g   -0.293391     1B2g   -0.293391

  @DF-ROHF Final Energy:  -149.47662071458376

   => Energetics <=

    Nuclear Repulsion Energy =             24.0521290787700259
    One-Electron Energy =                -253.4046695201571993
    Two-Electron Energy =                  79.8759197268034029
    Total Energy =                       -149.4766207145837598
    Molecular point group: d2h

    Geometry (in Angstrom), charge = 0, multiplicity = 3:

       Center              X                  Y                   Z               Mass
    ------------   -----------------  -----------------  -----------------  -----------------
           O          0.000000000000     0.000000000000    -0.704040404050    15.994914619560
           O          0.000000000000     0.000000000000     0.704040404050    15.994914619560

  Basis Set: 6-31G
    Blend: 6-31G
  Basis Set: (6-31G AUX)
    Blend: CC-PVDZ-JKFIT

  -Total Gradient:
     Atom            X                  Y                   Z
    ------   -----------------  -----------------  -----------------
       1       -0.000000000000     0.000000000000    -0.197035196150
       2        0.000000000000     0.000000000000     0.197035196150

*** Psi4 exiting successfully. Buy a developer a beer!
