                               Psi4 1.2a1.dev429

  ==> Input File <==

--------------------------------------------------------------------------
# density-fitted MP2 energies and gradients with 6-31g

molecule h20 {
-1 1
C 0.0000000000 0.0000000000 0.0000000000
X 0.0000000000 0.0000000000 1.0000000000
H 0.0000000000 1.1290000000 0.0000000000
H 0.9777426809 -0.5645000000 0.0000000000
H -0.9777426809 -0.5645000000 0.0000000000
}

set reference rhf
set basis 6-31g

gradient('mp2')
--------------------------------------------------------------------------

    Molecular point group: c2v
  Charge       = -1
  Multiplicity = 1
  Basis Set: 6-31G
    Blend: 6-31G
  Basis Set: (6-31G AUX)
    Blend: CC-PVDZ-JKFIT

    Orbital Energies (a.u.)
    -----------------------

    Doubly Occupied:

       1A1   -10.860116     2A1    -0.535612     3A1    -0.213424
       1B1    -0.213424     1B2     0.050916

  @DF-RHF Final Energy:   -39.43349611405895

   => Energetics <=

    Nuclear Repulsion Energy =              9.2486727776432343
    One-Electron Energy =                 -73.8210188397413418
    Two-Electron Energy =                  25.1388499480391481
    Total Energy =                        -39.4334961140589542
  Basis Set: (6-31G AUX)
    Blend: CC-PVDZ-RI
    Molecular point group: c2v

    Geometry (in Angstrom), charge = -1, multiplicity = 1:

       Center              X                  Y                   Z               Mass
    ------------   -----------------  -----------------  -----------------  -----------------
           C          0.000000000000    -0.000000000000     0.000000000000    12.000000000000
           H          0.000000000000    -0.000000000000     1.129000000000     1.007825032070
           H          0.977742680900     0.000000000000    -0.564500000000     1.007825032070
           H         -0.977742680900    -0.000000000000    -0.564500000000     1.007825032070

  Basis Set: 6-31G
    Blend: 6-31G
  Basis Set: (6-31G AUX)
    Blend: CC-PVDZ-JKFIT
  Basis Set: (6-31G AUX)
    Blend: CC-PVDZ-JKFIT
	 Reference Energy          =     -39.4334961140589542 [Eh]
	 Singles Energy            =      -0.0000000000000000 [Eh]
	 Same-Spin Energy          =      -0.0178490850605374 [Eh]
	 Opposite-Spin Energy      =      -0.0803207949271045 [Eh]
	 Correlation Energy        =      -0.0981698799876419 [Eh]
	 Total Energy              =     -39.5316659940465982 [Eh]

	 ================> DF-SCS-MP2 Energies <==================
	-----------------------------------------------------------
	 SCS Same-Spin Scale       =       0.3333333333333333 [-]
	 SCS Opposite-Spin Scale   =       1.2000000000000000 [-]
	 SCS Same-Spin Energy      =      -0.0059496950201791 [Eh]
	 SCS Opposite-Spin Energy  =      -0.0963849539125254 [Eh]
	 SCS Correlation Energy    =      -0.1023346489327045 [Eh]
	 SCS Total Energy          =     -39.5358307629916581 [Eh]
	-----------------------------------------------------------

  -Total Gradient:
     Atom            X                  Y                   Z
    ------   -----------------  -----------------  -----------------
       1        0.000000000007    -0.000000000000     0.000000000046
       2        0.000000000002     0.000000000000     0.023325468520
       3        0.020200448318    -0.000000000000    -0.011662734280
       4       -0.020200448327     0.000000000000    -0.011662734287

*** Psi4 exiting successfully. Buy a developer a beer!
