                               Psi4 1.2a1.dev429

  ==> Input File <==

--------------------------------------------------------------------------
# density-fitted hartree fock energies and gradients with 6-31g
molecule h2o {
0 1
O 0.0000000000 0.0000000000 0.0000000000
H 0.0000000000 0.0000000000 1.4000000000
H 0.0000000000 1.4000000000 0.0000000000
}

set basis 6-31g

gradient('mp2')
--------------------------------------------------------------------------

    Molecular point group: c2v
  Charge       = 0
  Multiplicity = 1
  Basis Set: 6-31G
    Blend: 6-31G
  Basis Set: (6-31G AUX)
    Blend: CC-PVDZ-JKFIT

    Orbital Energies (a.u.)
    -----------------------

    Doubly Occupied:

       1A1   -20.645809     2A1    -1.235791     1B2    -0.524339
       3A1    -0.511267     1B1    -0.506488

  @DF-RHF Final Energy:   -75.81433131087151

   => Energetics <=

    Nuclear Repulsion Energy =              6.3150143786309698
    One-Electron Energy =                -117.4113034720760993
    Two-Electron Energy =                  35.2819577825736275
    Total Energy =                        -75.8143313108715091
  Basis Set: (6-31G AUX)
    Blend: CC-PVDZ-RI
    Molecular point group: c2v

    Geometry (in Angstrom), charge = 0, multiplicity = 1:

       Center              X                  Y                   Z               Mass
    ------------   -----------------  -----------------  -----------------  -----------------
           O          0.000000000000     0.000000000000    -0.110790072129    15.994914619560
           H          0.000000000000    -0.989949493661     0.879159421532     1.007825032070
           H         -0.000000000000     0.989949493661     0.879159421532     1.007825032070

  Basis Set: 6-31G
    Blend: 6-31G
  Basis Set: (6-31G AUX)
    Blend: CC-PVDZ-JKFIT
  Basis Set: (6-31G AUX)
    Blend: CC-PVDZ-JKFIT
	 Reference Energy          =     -75.8143313108715091 [Eh]
	 Singles Energy            =      -0.0000000000000000 [Eh]
	 Same-Spin Energy          =      -0.0396308383147994 [Eh]
	 Opposite-Spin Energy      =      -0.1368989751515093 [Eh]
	 Correlation Energy        =      -0.1765298134663087 [Eh]
	 Total Energy              =     -75.9908611243378118 [Eh]

	 ================> DF-SCS-MP2 Energies <==================
	-----------------------------------------------------------
	 SCS Same-Spin Scale       =       0.3333333333333333 [-]
	 SCS Opposite-Spin Scale   =       1.2000000000000000 [-]
	 SCS Same-Spin Energy      =      -0.0132102794382665 [Eh]
	 SCS Opposite-Spin Energy  =      -0.1642787701818112 [Eh]
	 SCS Correlation Energy    =      -0.1774890496200776 [Eh]
	 SCS Total Energy          =     -75.9918203604915874 [Eh]
	-----------------------------------------------------------

  -Total Gradient:
     Atom            X                  Y                   Z
    ------   -----------------  -----------------  -----------------
       1        0.000000000000    -0.000000000001    -0.135657912871
       2       -0.000000000000    -0.066522064583     0.067828956435
       3       -0.000000000000     0.066522064584     0.067828956436

*** Psi4 exiting successfully. Buy a developer a beer!
