                               Psi4 1.3.1 release

  ==> Input File <==

--------------------------------------------------------------------------
# density fitted MP2
molecule h2o {
0 1
H 0.0000000000 0.0000000000 0.9375000000
H 0.0000000000 0.9294795575 -0.1223683052
O 0.0000000000 0.0000000000 0.0000000000
}

set basis 6-31g
energy('mp2')

--------------------------------------------------------------------------

    Molecular point group: c2v

    Geometry (in Angstrom), charge = 0, multiplicity = 1:

       Center              X                  Y                   Z               Mass
    ------------   -----------------  -----------------  -----------------  -----------------
         H            0.000000000000    -0.704849819497     0.548958011005     1.007825032230
         H           -0.000000000000     0.704849819497     0.548958011005     1.007825032230
         O           -0.000000000000     0.000000000000    -0.069178690639    15.994914619570

  Charge       = 0
  Multiplicity = 1
  Basis Set: 6-31G
    Blend: 6-31G
  Basis Set: (6-31G AUX)
    Blend: CC-PVDZ-JKFIT

    Orbital Energies [Eh]
    ---------------------

    Doubly Occupied:

       1A1   -20.561249     2A1    -1.375747     1B2    -0.707789
       3A1    -0.577355     1B1    -0.505735

  @DF-RHF Final Energy:   -75.97878098669717

   => Energetics <=

    Nuclear Repulsion Energy =              9.4066740134007532
    One-Electron Energy =                -123.3151607821834403
    Two-Electron Energy =                  37.9297057820855130
    Total Energy =                        -75.9787809866971884

  Dipole Moment: [D]
     X:    -0.0000      Y:     0.0000      Z:     2.7359     Total:     2.7359

  Basis Set: (6-31G AUX)
    Blend: CC-PVDZ-RI
	 Reference Energy          =     -75.9787809866971742 [Eh]
	 Singles Energy            =      -0.0000000000000000 [Eh]
	 Same-Spin Energy          =      -0.0297133938562731 [Eh]
	 Opposite-Spin Energy      =      -0.0977528640072351 [Eh]
	 Correlation Energy        =      -0.1274662578635082 [Eh]
	 Total Energy              =     -76.1062472445606772 [Eh]

	 ================> DF-SCS-MP2 Energies <==================
	-----------------------------------------------------------
	 SCS Same-Spin Scale       =       0.3333333333333333 [-]
	 SCS Opposite-Spin Scale   =       1.2000000000000000 [-]
	 SCS Same-Spin Energy      =      -0.0099044646187577 [Eh]
	 SCS Opposite-Spin Energy  =      -0.1173034368086821 [Eh]
	 SCS Correlation Energy    =      -0.1272079014274398 [Eh]
	 SCS Total Energy          =     -76.1059888881246138 [Eh]
	-----------------------------------------------------------

*** Psi4 exiting successfully. Buy a developer a beer!
