                               Psi4 1.2a1.dev429

  ==> Input File <==

--------------------------------------------------------------------------
# density-fitted hartree fock energies and gradients with 6-31g
molecule h2o {
0 1
O 0.0000000000 0.0000000000 0.0000000000
H 0.0000000000 0.0000000000 0.9000000000
H 0.0000000000 0.7000000000 -1.2124355653
}

set basis 6-31g

gradient('mp2')
--------------------------------------------------------------------------

    Molecular point group: cs
  Charge       = 0
  Multiplicity = 1
  Basis Set: 6-31G
    Blend: 6-31G
  Basis Set: (6-31G AUX)
    Blend: CC-PVDZ-JKFIT

    Orbital Energies (a.u.)
    -----------------------

    Doubly Occupied:

       1Ap   -20.527687     2Ap    -1.266118     3Ap    -0.648443
       1App   -0.455879     4Ap    -0.449222

  @DF-RHF Final Energy:   -75.85134913429185

   => Energetics <=

    Nuclear Repulsion Energy =              7.9654573852239841
    One-Electron Energy =                -120.9389162692220481
    Two-Electron Energy =                  37.1221097497062118
    Total Energy =                        -75.8513491342918513
  Basis Set: (6-31G AUX)
    Blend: CC-PVDZ-RI
    Molecular point group: cs

    Geometry (in Angstrom), charge = 0, multiplicity = 1:

       Center              X                  Y                   Z               Mass
    ------------   -----------------  -----------------  -----------------  -----------------
           O          0.039170205645    -0.017483093348     0.000000000000    15.994914619560
           H          0.039170205645    -0.917483093348     0.000000000000     1.007825032070
           H         -0.660829794355     1.194952471952     0.000000000000     1.007825032070

  Basis Set: 6-31G
    Blend: 6-31G
  Basis Set: (6-31G AUX)
    Blend: CC-PVDZ-JKFIT
  Basis Set: (6-31G AUX)
    Blend: CC-PVDZ-JKFIT
	 Reference Energy          =     -75.8513491342918513 [Eh]
	 Singles Energy            =      -0.0000000000000000 [Eh]
	 Same-Spin Energy          =      -0.0330788727925214 [Eh]
	 Opposite-Spin Energy      =      -0.1079915269702177 [Eh]
	 Correlation Energy        =      -0.1410703997627391 [Eh]
	 Total Energy              =     -75.9924195340545907 [Eh]

	 ================> DF-SCS-MP2 Energies <==================
	-----------------------------------------------------------
	 SCS Same-Spin Scale       =       0.3333333333333333 [-]
	 SCS Opposite-Spin Scale   =       1.2000000000000000 [-]
	 SCS Same-Spin Energy      =      -0.0110262909308405 [Eh]
	 SCS Opposite-Spin Energy  =      -0.1295898323642612 [Eh]
	 SCS Correlation Energy    =      -0.1406161232951017 [Eh]
	 SCS Total Energy          =     -75.9919652575869549 [Eh]
	-----------------------------------------------------------

  -Total Gradient:
     Atom            X                  Y                   Z
    ------   -----------------  -----------------  -----------------
       1       -0.015428275904    -0.213226158371     0.000000000000
       2        0.050158723523     0.088581471952    -0.000000000000
       3       -0.034730447620     0.124644686419     0.000000000000

*** Psi4 exiting successfully. Buy a developer a beer!
