                               Psi4 1.2a1.dev429

  ==> Input File <==

--------------------------------------------------------------------------
# density-fitted hartree fock energies and gradients with 6-31g
molecule o2 {
0 3
O 0.0000000000 0.0000000000 0.0000000000
O 0.0000000000 0.0000000000 0.9714285714
}

set basis 6-31g
set reference rohf

energy('scf')
--------------------------------------------------------------------------

    Molecular point group: d2h

    Geometry (in Angstrom), charge = 0, multiplicity = 3:

       Center              X                  Y                   Z               Mass
    ------------   -----------------  -----------------  -----------------  -----------------
           O          0.000000000000     0.000000000000    -0.485714285700    15.994914619560
           O          0.000000000000     0.000000000000     0.485714285700    15.994914619560

  Charge       = 0
  Multiplicity = 3
  Basis Set: 6-31G
    Blend: 6-31G
  Basis Set: (6-31G AUX)
    Blend: CC-PVDZ-JKFIT

    Orbital Energies (a.u.)
    -----------------------

    Doubly Occupied:

       1Ag   -20.709719     1B1u  -20.706554     2Ag    -1.976237
       2B1u   -1.007465     1B3u   -0.845328     1B2u   -0.845328
       3Ag    -0.790678

    Singly Occupied:

       1B2g   -0.103958     1B3g   -0.103958

  @DF-ROHF Final Energy:  -149.38109891344556

   => Energetics <=

    Nuclear Repulsion Energy =             34.8634396257783266
    One-Electron Energy =                -273.8566154686121763
    Two-Electron Energy =                  89.6120769293883228
    Total Energy =                       -149.3810989134455554
*** Psi4 exiting successfully. Buy a developer a beer!
