                               Psi4 1.2a1.dev429

  ==> Input File <==

--------------------------------------------------------------------------
# density-fitted hartree fock energies and gradients with 6-31g
molecule h2o {
0 1
O 0.0000000000 0.0000000000 0.0000000000
H 0.0000000000 0.0000000000 1.4000000000
H 0.0000000000 0.0000000000 -0.8000000000
}

set basis 6-31g

gradient('mp2')
--------------------------------------------------------------------------

    Molecular point group: c2v
  Charge       = 0
  Multiplicity = 1
  Basis Set: 6-31G
    Blend: 6-31G
  Basis Set: (6-31G AUX)
    Blend: CC-PVDZ-JKFIT

    Orbital Energies (a.u.)
    -----------------------

    Doubly Occupied:

       1A1   -20.482691     2A1    -1.277326     3A1    -0.662740
       1B2    -0.434761     1B1    -0.434761

  @DF-RHF Final Energy:   -75.79563901013596

   => Energetics <=

    Nuclear Repulsion Energy =              8.5561769440850650
    One-Electron Energy =                -122.1190721041635356
    Two-Electron Energy =                  37.7672561499425044
    Total Energy =                        -75.7956390101359716
  Basis Set: (6-31G AUX)
    Blend: CC-PVDZ-RI
    Molecular point group: c2v

    Geometry (in Angstrom), charge = 0, multiplicity = 1:

       Center              X                  Y                   Z               Mass
    ------------   -----------------  -----------------  -----------------  -----------------
           O          0.000000000000     0.000000000000    -0.033574461982    15.994914619560
           H          0.000000000000     0.000000000000     1.366425538018     1.007825032070
           H          0.000000000000     0.000000000000    -0.833574461982     1.007825032070

  Basis Set: 6-31G
    Blend: 6-31G
  Basis Set: (6-31G AUX)
    Blend: CC-PVDZ-JKFIT
  Basis Set: (6-31G AUX)
    Blend: CC-PVDZ-JKFIT
	 Reference Energy          =     -75.7956390101359574 [Eh]
	 Singles Energy            =      -0.0000000000000000 [Eh]
	 Same-Spin Energy          =      -0.0321081212629146 [Eh]
	 Opposite-Spin Energy      =      -0.1009955719047771 [Eh]
	 Correlation Energy        =      -0.1331036931676917 [Eh]
	 Total Energy              =     -75.9287427033036550 [Eh]

	 ================> DF-SCS-MP2 Energies <==================
	-----------------------------------------------------------
	 SCS Same-Spin Scale       =       0.3333333333333333 [-]
	 SCS Opposite-Spin Scale   =       1.2000000000000000 [-]
	 SCS Same-Spin Energy      =      -0.0107027070876382 [Eh]
	 SCS Opposite-Spin Energy  =      -0.1211946862857325 [Eh]
	 SCS Correlation Energy    =      -0.1318973933733707 [Eh]
	 SCS Total Energy          =     -75.9275364035093219 [Eh]
	-----------------------------------------------------------

  -Total Gradient:
     Atom            X                  Y                   Z
    ------   -----------------  -----------------  -----------------
       1        0.000000000000     0.000000000000    -0.457474542395
       2       -0.000000000000    -0.000000000000     0.153739080676
       3       -0.000000000000    -0.000000000000     0.303735461719

*** Psi4 exiting successfully. Buy a developer a beer!
