                               Psi4 1.2a1.dev429

  ==> Input File <==

--------------------------------------------------------------------------
# density-fitted hartree fock energies and gradients with 6-31g
molecule h2o {
0 1
O 0.0000000000 0.0000000000 0.0000000000
H 0.0000000000 0.0000000000 1.0000000000
H 0.0000000000 0.2431074487 -1.3787308542
}

set basis 6-31g

gradient('mp2')
--------------------------------------------------------------------------

    Molecular point group: cs
  Charge       = 0
  Multiplicity = 1
  Basis Set: 6-31G
    Blend: 6-31G
  Basis Set: (6-31G AUX)
    Blend: CC-PVDZ-JKFIT

    Orbital Energies (a.u.)
    -----------------------

    Doubly Occupied:

       1Ap   -20.502834     2Ap    -1.208075     3Ap    -0.611477
       1App   -0.428154     4Ap    -0.426014

  @DF-RHF Final Energy:   -75.82943482202539

   => Energetics <=

    Nuclear Repulsion Energy =              7.4785966476579766
    One-Electron Energy =                -120.2629581852503122
    Two-Electron Energy =                  36.9549267155669412
    Total Energy =                        -75.8294348220253909
  Basis Set: (6-31G AUX)
    Blend: CC-PVDZ-RI
    Molecular point group: cs

    Geometry (in Angstrom), charge = 0, multiplicity = 1:

       Center              X                  Y                   Z               Mass
    ------------   -----------------  -----------------  -----------------  -----------------
           O          0.013603669656    -0.021192807776     0.000000000000    15.994914619560
           H          0.013603669656    -1.021192807776     0.000000000000     1.007825032070
           H         -0.229503779044     1.357538046424     0.000000000000     1.007825032070

  Basis Set: 6-31G
    Blend: 6-31G
  Basis Set: (6-31G AUX)
    Blend: CC-PVDZ-JKFIT
  Basis Set: (6-31G AUX)
    Blend: CC-PVDZ-JKFIT
	 Reference Energy          =     -75.8294348220253909 [Eh]
	 Singles Energy            =      -0.0000000000000000 [Eh]
	 Same-Spin Energy          =      -0.0335772857341447 [Eh]
	 Opposite-Spin Energy      =      -0.1061948326448511 [Eh]
	 Correlation Energy        =      -0.1397721183789959 [Eh]
	 Total Energy              =     -75.9692069404043906 [Eh]

	 ================> DF-SCS-MP2 Energies <==================
	-----------------------------------------------------------
	 SCS Same-Spin Scale       =       0.3333333333333333 [-]
	 SCS Opposite-Spin Scale   =       1.2000000000000000 [-]
	 SCS Same-Spin Energy      =      -0.0111924285780482 [Eh]
	 SCS Opposite-Spin Energy  =      -0.1274337991738214 [Eh]
	 SCS Correlation Energy    =      -0.1386262277518696 [Eh]
	 SCS Total Energy          =     -75.9680610497772619 [Eh]
	-----------------------------------------------------------

  -Total Gradient:
     Atom            X                  Y                   Z
    ------   -----------------  -----------------  -----------------
       1       -0.024763235533    -0.103286460832     0.000000000000
       2        0.028716272240    -0.037254051157    -0.000000000000
       3       -0.003953036708     0.140540511988    -0.000000000000

*** Psi4 exiting successfully. Buy a developer a beer!
