                               Psi4 1.2a1.dev429

  ==> Input File <==

--------------------------------------------------------------------------
# density-fitted hartree fock energies and gradients with 6-31g
molecule h20 {
0 1
O 0.0000000000 0.0000000000 0.0000000000
H 0.0000000000 0.0000000000 1.0000000000
H 0.0000000000 0.6128355545 -0.5142300877
}

set basis 6-31g

gradient('hf')
--------------------------------------------------------------------------

    Molecular point group: cs
  Charge       = 0
  Multiplicity = 1
  Basis Set: 6-31G
    Blend: 6-31G
  Basis Set: (6-31G AUX)
    Blend: CC-PVDZ-JKFIT

    Orbital Energies (a.u.)
    -----------------------

    Doubly Occupied:

       1Ap   -20.528976     2Ap    -1.371928     3Ap    -0.783269
       4Ap    -0.521699     1App   -0.493878

  @DF-RHF Final Energy:   -75.94222752569952

   => Energetics <=

    Nuclear Repulsion Energy =              9.8491343722259241
    One-Electron Energy =                -124.1832244236801159
    Two-Electron Energy =                  38.3918625257546893
    Total Energy =                        -75.9422275256995079
    Molecular point group: cs

    Geometry (in Angstrom), charge = 0, multiplicity = 1:

       Center              X                  Y                   Z               Mass
    ------------   -----------------  -----------------  -----------------  -----------------
           O          0.034292706709     0.027182439087     0.000000000000    15.994914619560
           H          0.034292706709    -0.972817560913     0.000000000000     1.007825032070
           H         -0.578542847791     0.541412526787     0.000000000000     1.007825032070

  Basis Set: 6-31G
    Blend: 6-31G
  Basis Set: (6-31G AUX)
    Blend: CC-PVDZ-JKFIT

  -Total Gradient:
     Atom            X                  Y                   Z
    ------   -----------------  -----------------  -----------------
       1       -0.253946309634     0.227683581795     0.000000000000
       2        0.020120217632    -0.064311543607     0.000000000000
       3        0.233826092003    -0.163372038189     0.000000000000

*** Psi4 exiting successfully. Buy a developer a beer!
