                               Psi4 1.2a1.dev429

  ==> Input File <==

--------------------------------------------------------------------------
# density-fitted hartree fock energies and gradients with 6-31g
molecule h20 {
0 1
O 0.0000000000 0.0000000000 0.0000000000
O 0.0000000000 0.0000000000 0.8565656566
}

set basis 6-31g

gradient('hf')
--------------------------------------------------------------------------

    Molecular point group: d2h
  Charge       = 0
  Multiplicity = 1
  Basis Set: 6-31G
    Blend: 6-31G
  Basis Set: (6-31G AUX)
    Blend: CC-PVDZ-JKFIT

    Orbital Energies (a.u.)
    -----------------------

    Doubly Occupied:

       1Ag   -20.724727     1B1u  -20.716277     2Ag    -2.158329
       1B2u   -0.994999     2B1u   -0.967789     1B3u   -0.909848
       3Ag    -0.830141     1B3g   -0.279275

  @DF-RHF Final Energy:  -148.97494847960178

   => Energetics <=

    Nuclear Repulsion Energy =             39.5385235081581214
    One-Electron Energy =                -281.8641707772371205
    Two-Electron Energy =                  93.3506987894772635
    Total Energy =                       -148.9749484796017498
    Molecular point group: d2h

    Geometry (in Angstrom), charge = 0, multiplicity = 1:

       Center              X                  Y                   Z               Mass
    ------------   -----------------  -----------------  -----------------  -----------------
           O          0.000000000000     0.000000000000    -0.428282828300    15.994914619560
           O          0.000000000000     0.000000000000     0.428282828300    15.994914619560

  Basis Set: 6-31G
    Blend: 6-31G
  Basis Set: (6-31G AUX)
    Blend: CC-PVDZ-JKFIT

  -Total Gradient:
     Atom            X                  Y                   Z
    ------   -----------------  -----------------  -----------------
       1        0.000000000000     0.000000000000     2.323141883300
       2       -0.000000000000     0.000000000000    -2.323141883300

*** Psi4 exiting successfully. Buy a developer a beer!
