                               Psi4 1.2a1.dev429

  ==> Input File <==

--------------------------------------------------------------------------
# density-fitted hartree fock energies and gradients with 6-31g
molecule h20 {
0 1
O 0.0000000000 0.0000000000 0.0000000000
H 0.0000000000 0.0000000000 1.3000000000
H 0.0000000000 0.7878462024 -0.1389185421
}

set basis 6-31g

gradient('hf')
--------------------------------------------------------------------------

    Molecular point group: cs
  Charge       = 0
  Multiplicity = 1
  Basis Set: 6-31G
    Blend: 6-31G
  Basis Set: (6-31G AUX)
    Blend: CC-PVDZ-JKFIT

    Orbital Energies (a.u.)
    -----------------------

    Doubly Occupied:

       1Ap   -20.575769     2Ap    -1.370557     3Ap    -0.679947
       4Ap    -0.534383     1App   -0.504720

  @DF-RHF Final Energy:   -75.88471163268233

   => Energetics <=

    Nuclear Repulsion Energy =              8.8708210195168196
    One-Electron Energy =                -122.1803129912022996
    Two-Electron Energy =                  37.4247803390031564
    Total Energy =                        -75.8847116326823254
    Molecular point group: cs

    Geometry (in Angstrom), charge = 0, multiplicity = 1:

       Center              X                  Y                   Z               Mass
    ------------   -----------------  -----------------  -----------------  -----------------
           O          0.044085853950     0.064971142110     0.000000000000    15.994914619560
           H          0.044085853950    -1.235028857890     0.000000000000     1.007825032070
           H         -0.743760348450     0.203889684210     0.000000000000     1.007825032070

  Basis Set: 6-31G
    Blend: 6-31G
  Basis Set: (6-31G AUX)
    Blend: CC-PVDZ-JKFIT

  -Total Gradient:
     Atom            X                  Y                   Z
    ------   -----------------  -----------------  -----------------
       1       -0.290493736570     0.194556447874     0.000000000000
       2       -0.006765582020    -0.130977937468     0.000000000000
       3        0.297259318590    -0.063578510406     0.000000000000

*** Psi4 exiting successfully. Buy a developer a beer!
