                               Psi4 1.2a1.dev429

  ==> Input File <==

--------------------------------------------------------------------------
# density-fitted hartree fock energies and gradients with 6-31g
molecule h2o {
0 1
O 0.0000000000 0.0000000000 0.0000000000
H 0.0000000000 0.0000000000 0.8000000000
H 0.0000000000 1.0724622204 -0.8999026536
}

set basis 6-31g

gradient('mp2')
--------------------------------------------------------------------------

    Molecular point group: cs
  Charge       = 0
  Multiplicity = 1
  Basis Set: 6-31G
    Blend: 6-31G
  Basis Set: (6-31G AUX)
    Blend: CC-PVDZ-JKFIT

    Orbital Energies (a.u.)
    -----------------------

    Doubly Occupied:

       1Ap   -20.548198     2Ap    -1.334206     3Ap    -0.677948
       1App   -0.481325     4Ap    -0.480294

  @DF-RHF Final Energy:   -75.84426976024575

   => Energetics <=

    Nuclear Repulsion Energy =              8.5789224257177086
    One-Electron Energy =                -121.8024419242350547
    Two-Electron Energy =                  37.3792497382715894
    Total Energy =                        -75.8442697602457656
  Basis Set: (6-31G AUX)
    Blend: CC-PVDZ-RI
    Molecular point group: cs

    Geometry (in Angstrom), charge = 0, multiplicity = 1:

       Center              X                  Y                   Z               Mass
    ------------   -----------------  -----------------  -----------------  -----------------
           O          0.060012236743    -0.005590296409     0.000000000000    15.994914619560
           H          0.060012236743    -0.805590296409     0.000000000000     1.007825032070
           H         -1.012449983657     0.894312357191     0.000000000000     1.007825032070

  Basis Set: 6-31G
    Blend: 6-31G
  Basis Set: (6-31G AUX)
    Blend: CC-PVDZ-JKFIT
  Basis Set: (6-31G AUX)
    Blend: CC-PVDZ-JKFIT
	 Reference Energy          =     -75.8442697602457514 [Eh]
	 Singles Energy            =      -0.0000000000000000 [Eh]
	 Same-Spin Energy          =      -0.0317499007937532 [Eh]
	 Opposite-Spin Energy      =      -0.1065658975941907 [Eh]
	 Correlation Energy        =      -0.1383157983879438 [Eh]
	 Total Energy              =     -75.9825855586337013 [Eh]

	 ================> DF-SCS-MP2 Energies <==================
	-----------------------------------------------------------
	 SCS Same-Spin Scale       =       0.3333333333333333 [-]
	 SCS Opposite-Spin Scale   =       1.2000000000000000 [-]
	 SCS Same-Spin Energy      =      -0.0105833002645844 [Eh]
	 SCS Opposite-Spin Energy  =      -0.1278790771130288 [Eh]
	 SCS Correlation Energy    =      -0.1384623773776132 [Eh]
	 SCS Total Energy          =     -75.9827321376233584 [Eh]
	-----------------------------------------------------------

  -Total Gradient:
     Atom            X                  Y                   Z
    ------   -----------------  -----------------  -----------------
       1        0.035941717843    -0.420685744816    -0.000000000000
       2        0.041808349803     0.324258877701     0.000000000000
       3       -0.077750067646     0.096426867115     0.000000000000

*** Psi4 exiting successfully. Buy a developer a beer!
