                               Psi4 1.2a1.dev429

  ==> Input File <==

--------------------------------------------------------------------------
# density-fitted hartree fock energies and gradients with 6-31g
molecule h20 {
0 1
O 0.0000000000 0.0000000000 0.0000000000
H 0.0000000000 0.0000000000 0.7000000000
H 0.0000000000 0.8999026536 -1.0724622204
}

set basis 6-31g

gradient('hf')
--------------------------------------------------------------------------

    Molecular point group: cs
  Charge       = 0
  Multiplicity = 1
  Basis Set: 6-31G
    Blend: 6-31G
  Basis Set: (6-31G AUX)
    Blend: CC-PVDZ-JKFIT

    Orbital Energies (a.u.)
    -----------------------

    Doubly Occupied:

       1Ap   -20.524236     2Ap    -1.375427     3Ap    -0.701074
       1App   -0.475851     4Ap    -0.472089

  @DF-RHF Final Energy:   -75.73933162903673

   => Energetics <=

    Nuclear Repulsion Energy =              9.3378184803079591
    One-Electron Energy =                -123.0569451703126873
    Two-Electron Energy =                  37.9797950609680015
    Total Energy =                        -75.7393316290367267
    Molecular point group: cs

    Geometry (in Angstrom), charge = 0, multiplicity = 1:

       Center              X                  Y                   Z               Mass
    ------------   -----------------  -----------------  -----------------  -----------------
           O          0.050356245718    -0.020842031097     0.000000000000    15.994914619560
           H          0.050356245718    -0.720842031097     0.000000000000     1.007825032070
           H         -0.849546407882     1.051620189303     0.000000000000     1.007825032070

  Basis Set: 6-31G
    Blend: 6-31G
  Basis Set: (6-31G AUX)
    Blend: CC-PVDZ-JKFIT

  -Total Gradient:
     Atom            X                  Y                   Z
    ------   -----------------  -----------------  -----------------
       1        0.024948363693    -0.872571177561     0.000000000000
       2        0.052281603882     0.739864218316     0.000000000000
       3       -0.077229967574     0.132706959245     0.000000000000

*** Psi4 exiting successfully. Buy a developer a beer!
