                               Psi4 1.2a1.dev429

  ==> Input File <==

--------------------------------------------------------------------------
# density-fitted hartree fock energies and gradients with 6-31g
molecule h2o {
0 1
O 0.0000000000 0.0000000000 0.0000000000
H 0.0000000000 0.0000000000 1.4000000000
H 0.0000000000 0.6894399988 -0.5785088487
}

set basis 6-31g

gradient('mp2')
--------------------------------------------------------------------------

    Molecular point group: cs
  Charge       = 0
  Multiplicity = 1
  Basis Set: 6-31G
    Blend: 6-31G
  Basis Set: (6-31G AUX)
    Blend: CC-PVDZ-JKFIT

    Orbital Energies (a.u.)
    -----------------------

    Doubly Occupied:

       1Ap   -20.559356     2Ap    -1.291887     3Ap    -0.652380
       1App   -0.478229     4Ap    -0.476105

  @DF-RHF Final Energy:   -75.87674103409586

   => Energetics <=

    Nuclear Repulsion Energy =              7.9802347155586641
    One-Electron Energy =                -120.7980363683032294
    Two-Electron Energy =                  36.9410606186487058
    Total Energy =                        -75.8767410340958577
  Basis Set: (6-31G AUX)
    Blend: CC-PVDZ-RI
    Molecular point group: cs

    Geometry (in Angstrom), charge = 0, multiplicity = 1:

       Center              X                  Y                   Z               Mass
    ------------   -----------------  -----------------  -----------------  -----------------
           O          0.038579295047     0.045968539046     0.000000000000    15.994914619560
           H          0.038579295047    -1.354031460954     0.000000000000     1.007825032070
           H         -0.650860703753     0.624477387746     0.000000000000     1.007825032070

  Basis Set: 6-31G
    Blend: 6-31G
  Basis Set: (6-31G AUX)
    Blend: CC-PVDZ-JKFIT
  Basis Set: (6-31G AUX)
    Blend: CC-PVDZ-JKFIT
	 Reference Energy          =     -75.8767410340958577 [Eh]
	 Singles Energy            =      -0.0000000000000000 [Eh]
	 Same-Spin Energy          =      -0.0329133561341106 [Eh]
	 Opposite-Spin Energy      =      -0.1103223087399541 [Eh]
	 Correlation Energy        =      -0.1432356648740647 [Eh]
	 Total Energy              =     -76.0199766989699270 [Eh]

	 ================> DF-SCS-MP2 Energies <==================
	-----------------------------------------------------------
	 SCS Same-Spin Scale       =       0.3333333333333333 [-]
	 SCS Opposite-Spin Scale   =       1.2000000000000000 [-]
	 SCS Same-Spin Energy      =      -0.0109711187113702 [Eh]
	 SCS Opposite-Spin Energy  =      -0.1323867704879449 [Eh]
	 SCS Correlation Energy    =      -0.1433578891993151 [Eh]
	 SCS Total Energy          =     -76.0200989232951798 [Eh]
	-----------------------------------------------------------

  -Total Gradient:
     Atom            X                  Y                   Z
    ------   -----------------  -----------------  -----------------
       1       -0.124998239722     0.149668818176    -0.000000000000
       2        0.025403770359    -0.117684884261    -0.000000000000
       3        0.099594469363    -0.031983933916     0.000000000000

*** Psi4 exiting successfully. Buy a developer a beer!
