                               Psi4 1.2a1.dev429

  ==> Input File <==

--------------------------------------------------------------------------
# density-fitted hartree fock energies and gradients with 6-31g
molecule h20 {
0 1
O 0.0000000000 0.0000000000 0.0000000000
H 0.0000000000 0.0000000000 1.3000000000
H 0.0000000000 0.6000000000 -1.0392304845
}

set basis 6-31g

gradient('hf')
--------------------------------------------------------------------------

    Molecular point group: cs
  Charge       = 0
  Multiplicity = 1
  Basis Set: 6-31G
    Blend: 6-31G
  Basis Set: (6-31G AUX)
    Blend: CC-PVDZ-JKFIT

    Orbital Energies (a.u.)
    -----------------------

    Doubly Occupied:

       1Ap   -20.549475     2Ap    -1.203720     3Ap    -0.592332
       1App   -0.450992     4Ap    -0.444299

  @DF-RHF Final Energy:   -75.84201324533397

   => Energetics <=

    Nuclear Repulsion Energy =              7.0034484252418059
    One-Electron Energy =                -119.2092885063744205
    Two-Electron Energy =                  36.3638268357986476
    Total Energy =                        -75.8420132453339733
    Molecular point group: cs

    Geometry (in Angstrom), charge = 0, multiplicity = 1:

       Center              X                  Y                   Z               Mass
    ------------   -----------------  -----------------  -----------------  -----------------
           O          0.033574461982     0.014591993640     0.000000000000    15.994914619560
           H          0.033574461982    -1.285408006360     0.000000000000     1.007825032070
           H         -0.566425538018     1.053822478140     0.000000000000     1.007825032070

  Basis Set: 6-31G
    Blend: 6-31G
  Basis Set: (6-31G AUX)
    Blend: CC-PVDZ-JKFIT

  -Total Gradient:
     Atom            X                  Y                   Z
    ------   -----------------  -----------------  -----------------
       1        0.001361781355     0.010441891960     0.000000000000
       2        0.032319249374    -0.138804189399     0.000000000000
       3       -0.033681030729     0.128362297439     0.000000000000

*** Psi4 exiting successfully. Buy a developer a beer!
