                               Psi4 1.2a1.dev429

  ==> Input File <==

--------------------------------------------------------------------------
# density-fitted hartree fock energies and gradients with 6-31g
molecule h20 {
0 1
O 0.0000000000 0.0000000000 0.0000000000
H 0.0000000000 0.0000000000 0.9000000000
H 0.0000000000 0.3500000000 -0.6062177826
}

set basis 6-31g

gradient('hf')
--------------------------------------------------------------------------

    Molecular point group: cs
  Charge       = 0
  Multiplicity = 1
  Basis Set: 6-31G
    Blend: 6-31G
  Basis Set: (6-31G AUX)
    Blend: CC-PVDZ-JKFIT

    Orbital Energies (a.u.)
    -----------------------

    Doubly Occupied:

       1Ap   -20.504200     2Ap    -1.417379     3Ap    -0.881151
       4Ap    -0.512170     1App   -0.500840

  @DF-RHF Final Energy:   -75.84258678017704

   => Energetics <=

    Nuclear Repulsion Energy =             11.0937478898361821
    One-Electron Energy =                -126.2411876255658569
    Two-Electron Energy =                  39.3048529555526329
    Total Energy =                        -75.8425867801770437
    Molecular point group: cs

    Geometry (in Angstrom), charge = 0, multiplicity = 1:

       Center              X                  Y                   Z               Mass
    ------------   -----------------  -----------------  -----------------  -----------------
           O          0.019585102823     0.016439299815     0.000000000000    15.994914619560
           H          0.019585102823    -0.883560700185     0.000000000000     1.007825032070
           H         -0.330414897177     0.622657082415     0.000000000000     1.007825032070

  Basis Set: 6-31G
    Blend: 6-31G
  Basis Set: (6-31G AUX)
    Blend: CC-PVDZ-JKFIT

  -Total Gradient:
     Atom            X                  Y                   Z
    ------   -----------------  -----------------  -----------------
       1       -0.404257758102     0.571197764654     0.000000000000
       2        0.022513281606     0.032111768160     0.000000000000
       3        0.381744476496    -0.603309532814     0.000000000000

*** Psi4 exiting successfully. Buy a developer a beer!
