                               Psi4 1.2a1.dev429

  ==> Input File <==

--------------------------------------------------------------------------
# density-fitted hartree fock energies and gradients with 6-31g
molecule h2o {
0 1
O 0.0000000000 0.0000000000 0.0000000000
H 0.0000000000 0.0000000000 1.0000000000
H 0.0000000000 0.7000000000 -1.2124355653
}

set basis 6-31g

gradient('mp2')
--------------------------------------------------------------------------

    Molecular point group: cs
  Charge       = 0
  Multiplicity = 1
  Basis Set: 6-31G
    Blend: 6-31G
  Basis Set: (6-31G AUX)
    Blend: CC-PVDZ-JKFIT

    Orbital Energies (a.u.)
    -----------------------

    Doubly Occupied:

       1Ap   -20.537503     2Ap    -1.234959     3Ap    -0.622367
       1App   -0.453052     4Ap    -0.444985

  @DF-RHF Final Energy:   -75.85203855749897

   => Energetics <=

    Nuclear Repulsion Energy =              7.4853287141120477
    One-Electron Energy =                -120.0890022186163435
    Two-Electron Energy =                  36.7516349470053285
    Total Energy =                        -75.8520385574989717
  Basis Set: (6-31G AUX)
    Blend: CC-PVDZ-RI
    Molecular point group: cs

    Geometry (in Angstrom), charge = 0, multiplicity = 1:

       Center              X                  Y                   Z               Mass
    ------------   -----------------  -----------------  -----------------  -----------------
           O          0.039170205645    -0.011887349685     0.000000000000    15.994914619560
           H          0.039170205645    -1.011887349685     0.000000000000     1.007825032070
           H         -0.660829794355     1.200548215615     0.000000000000     1.007825032070

  Basis Set: 6-31G
    Blend: 6-31G
  Basis Set: (6-31G AUX)
    Blend: CC-PVDZ-JKFIT
  Basis Set: (6-31G AUX)
    Blend: CC-PVDZ-JKFIT
	 Reference Energy          =     -75.8520385574989717 [Eh]
	 Singles Energy            =      -0.0000000000000000 [Eh]
	 Same-Spin Energy          =      -0.0339526119191161 [Eh]
	 Opposite-Spin Energy      =      -0.1111362654471020 [Eh]
	 Correlation Energy        =      -0.1450888773662181 [Eh]
	 Total Energy              =     -75.9971274348651917 [Eh]

	 ================> DF-SCS-MP2 Energies <==================
	-----------------------------------------------------------
	 SCS Same-Spin Scale       =       0.3333333333333333 [-]
	 SCS Opposite-Spin Scale   =       1.2000000000000000 [-]
	 SCS Same-Spin Energy      =      -0.0113175373063720 [Eh]
	 SCS Opposite-Spin Energy  =      -0.1333635185365224 [Eh]
	 SCS Correlation Energy    =      -0.1446810558428944 [Eh]
	 SCS Total Energy          =     -75.9967196133418668 [Eh]
	-----------------------------------------------------------

  -Total Gradient:
     Atom            X                  Y                   Z
    ------   -----------------  -----------------  -----------------
       1       -0.017614964368    -0.095817710956    -0.000000000000
       2        0.047999177584    -0.025379542979     0.000000000000
       3       -0.030384213216     0.121197253935     0.000000000000

*** Psi4 exiting successfully. Buy a developer a beer!
