                               Psi4 1.2a1.dev429

  ==> Input File <==

--------------------------------------------------------------------------
# density-fitted hartree fock energies and gradients with 6-31g
molecule h20 {
0 1
O 0.0000000000 0.0000000000 0.0000000000
H 0.0000000000 0.0000000000 0.7000000000
H 0.0000000000 0.2394141003 -0.6577848346
}

set basis 6-31g

gradient('hf')
--------------------------------------------------------------------------

    Molecular point group: c2v
  Charge       = 0
  Multiplicity = 1
  Basis Set: 6-31G
    Blend: 6-31G
  Basis Set: (6-31G AUX)
    Blend: CC-PVDZ-JKFIT

    Orbital Energies (a.u.)
    -----------------------

    Doubly Occupied:

       1A1   -20.493240     2A1    -1.466507     1B2    -0.991512
       3A1    -0.524198     1B1    -0.518629

  @DF-RHF Final Energy:   -75.72693780767533

   => Energetics <=

    Nuclear Repulsion Energy =             12.4792937817267102
    One-Electron Energy =                -128.4242916404055563
    Two-Electron Energy =                  40.2180600510035191
    Total Energy =                        -75.7269378076753270
    Molecular point group: c2v

    Geometry (in Angstrom), charge = 0, multiplicity = 1:

       Center              X                  Y                   Z               Mass
    ------------   -----------------  -----------------  -----------------  -----------------
           O          0.000000000000     0.000000000000    -0.013603669656    15.994914619560
           H          0.000000000000    -0.689365427131     0.107950054692     1.007825032070
           H         -0.000000000000     0.689365427131     0.107950054692     1.007825032070

  Basis Set: 6-31G
    Blend: 6-31G
  Basis Set: (6-31G AUX)
    Blend: CC-PVDZ-JKFIT

  -Total Gradient:
     Atom            X                  Y                   Z
    ------   -----------------  -----------------  -----------------
       1       -0.000000000000     0.000000000000     0.276701261963
       2       -0.000000000000     0.683258747836    -0.138350630981
       3        0.000000000000    -0.683258747836    -0.138350630981

*** Psi4 exiting successfully. Buy a developer a beer!
