                               Psi4 1.2a1.dev429

  ==> Input File <==

--------------------------------------------------------------------------
# density-fitted hartree fock energies and gradients with 6-31g
molecule h20 {
0 1
O 0.0000000000 0.0000000000 0.0000000000
H 0.0000000000 0.0000000000 0.7000000000
H 0.0000000000 0.4104241720 -1.1276311449
}

set basis 6-31g

gradient('hf')
--------------------------------------------------------------------------

    Molecular point group: cs
  Charge       = 0
  Multiplicity = 1
  Basis Set: 6-31G
    Blend: 6-31G
  Basis Set: (6-31G AUX)
    Blend: CC-PVDZ-JKFIT

    Orbital Energies (a.u.)
    -----------------------

    Doubly Occupied:

       1Ap   -20.499077     2Ap    -1.364051     3Ap    -0.757137
       4Ap    -0.471687     1App   -0.469882

  @DF-RHF Final Energy:   -75.77832679652909

   => Energetics <=

    Nuclear Repulsion Energy =              9.8580944632095981
    One-Electron Energy =                -124.1491734859970393
    Two-Electron Energy =                  38.5127522262583639
    Total Energy =                        -75.7783267965290861
    Molecular point group: cs

    Geometry (in Angstrom), charge = 0, multiplicity = 1:

       Center              X                  Y                   Z               Mass
    ------------   -----------------  -----------------  -----------------  -----------------
           O          0.022966284599    -0.023929142694     0.000000000000    15.994914619560
           H          0.022966284599    -0.723929142694     0.000000000000     1.007825032070
           H         -0.387457887401     1.103702002206     0.000000000000     1.007825032070

  Basis Set: 6-31G
    Blend: 6-31G
  Basis Set: (6-31G AUX)
    Blend: CC-PVDZ-JKFIT

  -Total Gradient:
     Atom            X                  Y                   Z
    ------   -----------------  -----------------  -----------------
       1        0.002048517332    -0.885385650007     0.000000000000
       2        0.034702377389     0.725226668056     0.000000000000
       3       -0.036750894720     0.160158981951     0.000000000000

*** Psi4 exiting successfully. Buy a developer a beer!
