                               Psi4 1.2a1.dev429

  ==> Input File <==

--------------------------------------------------------------------------
# density-fitted hartree fock energies and gradients with 6-31g
molecule h2o {
0 1
O 0.0000000000 0.0000000000 0.0000000000
H 0.0000000000 0.0000000000 1.5000000000
H 0.0000000000 1.1258330249 -0.6500000000
}

set basis 6-31g

gradient('mp2')
--------------------------------------------------------------------------

    Molecular point group: cs
  Charge       = 0
  Multiplicity = 1
  Basis Set: 6-31G
    Blend: 6-31G
  Basis Set: (6-31G AUX)
    Blend: CC-PVDZ-JKFIT

    Orbital Energies (a.u.)
    -----------------------

    Doubly Occupied:

       1Ap   -20.618184     2Ap    -1.217614     3Ap    -0.544598
       1App   -0.487385     4Ap    -0.467964

  @DF-RHF Final Energy:   -75.80484366221872

   => Energetics <=

    Nuclear Repulsion Energy =              6.2967972458564407
    One-Electron Energy =                -117.5317943235612432
    Two-Electron Energy =                  35.4301534154860889
    Total Energy =                        -75.8048436622187154
  Basis Set: (6-31G AUX)
    Blend: CC-PVDZ-RI
    Molecular point group: cs

    Geometry (in Angstrom), charge = 0, multiplicity = 1:

       Center              X                  Y                   Z               Mass
    ------------   -----------------  -----------------  -----------------  -----------------
           O          0.062998730154     0.047563821141     0.000000000000    15.994914619560
           H          0.062998730154    -1.452436178859     0.000000000000     1.007825032070
           H         -1.062834294746     0.697563821141     0.000000000000     1.007825032070

  Basis Set: 6-31G
    Blend: 6-31G
  Basis Set: (6-31G AUX)
    Blend: CC-PVDZ-JKFIT
  Basis Set: (6-31G AUX)
    Blend: CC-PVDZ-JKFIT
	 Reference Energy          =     -75.8048436622187154 [Eh]
	 Singles Energy            =      -0.0000000000000000 [Eh]
	 Same-Spin Energy          =      -0.0378103365111910 [Eh]
	 Opposite-Spin Energy      =      -0.1323770530241301 [Eh]
	 Correlation Energy        =      -0.1701873895353211 [Eh]
	 Total Energy              =     -75.9750310517540299 [Eh]

	 ================> DF-SCS-MP2 Energies <==================
	-----------------------------------------------------------
	 SCS Same-Spin Scale       =       0.3333333333333333 [-]
	 SCS Opposite-Spin Scale   =       1.2000000000000000 [-]
	 SCS Same-Spin Energy      =      -0.0126034455037303 [Eh]
	 SCS Opposite-Spin Energy  =      -0.1588524636289562 [Eh]
	 SCS Correlation Energy    =      -0.1714559091326865 [Eh]
	 SCS Total Energy          =     -75.9762995713514044 [Eh]
	-----------------------------------------------------------

  -Total Gradient:
     Atom            X                  Y                   Z
    ------   -----------------  -----------------  -----------------
       1        0.052245152937     0.026516368472    -0.000000000000
       2        0.021130677630    -0.097033316354    -0.000000000000
       3       -0.073375830567     0.070516947882     0.000000000000

*** Psi4 exiting successfully. Buy a developer a beer!
