                               Psi4 1.2a1.dev429

  ==> Input File <==

--------------------------------------------------------------------------
# density-fitted hartree fock energies and gradients with 6-31g
molecule h2o {
0 1
O 0.0000000000 0.0000000000 0.0000000000
H 0.0000000000 0.0000000000 1.1000000000
H 0.0000000000 0.8863269777 -0.1562833599
}

set basis 6-31g

gradient('mp2')
--------------------------------------------------------------------------

    Molecular point group: cs
  Charge       = 0
  Multiplicity = 1
  Basis Set: 6-31G
    Blend: 6-31G
  Basis Set: (6-31G AUX)
    Blend: CC-PVDZ-JKFIT

    Orbital Energies (a.u.)
    -----------------------

    Doubly Occupied:

       1Ap   -20.571380     2Ap    -1.349308     3Ap    -0.683318
       4Ap    -0.559448     1App   -0.502514

  @DF-RHF Final Energy:   -75.96283091570270

   => Energetics <=

    Nuclear Repulsion Energy =              8.8965452571941519
    One-Electron Energy =                -122.3868166993975564
    Two-Electron Energy =                  37.5274405265007047
    Total Energy =                        -75.9628309157027104
  Basis Set: (6-31G AUX)
    Blend: CC-PVDZ-RI
    Molecular point group: cs

    Geometry (in Angstrom), charge = 0, multiplicity = 1:

       Center              X                  Y                   Z               Mass
    ------------   -----------------  -----------------  -----------------  -----------------
           O          0.049596585694     0.052807964091     0.000000000000    15.994914619560
           H          0.049596585694    -1.047192035909     0.000000000000     1.007825032070
           H         -0.836730392006     0.209091323991     0.000000000000     1.007825032070

  Basis Set: 6-31G
    Blend: 6-31G
  Basis Set: (6-31G AUX)
    Blend: CC-PVDZ-JKFIT
  Basis Set: (6-31G AUX)
    Blend: CC-PVDZ-JKFIT
	 Reference Energy          =     -75.9628309157026962 [Eh]
	 Singles Energy            =      -0.0000000000000000 [Eh]
	 Same-Spin Energy          =      -0.0308401979566500 [Eh]
	 Opposite-Spin Energy      =      -0.1018718113620999 [Eh]
	 Correlation Energy        =      -0.1327120093187499 [Eh]
	 Total Energy              =     -76.0955429250214479 [Eh]

	 ================> DF-SCS-MP2 Energies <==================
	-----------------------------------------------------------
	 SCS Same-Spin Scale       =       0.3333333333333333 [-]
	 SCS Opposite-Spin Scale   =       1.2000000000000000 [-]
	 SCS Same-Spin Energy      =      -0.0102800659855500 [Eh]
	 SCS Opposite-Spin Energy  =      -0.1222461736345198 [Eh]
	 SCS Correlation Energy    =      -0.1325262396200698 [Eh]
	 SCS Total Energy          =     -76.0953571553227590 [Eh]
	-----------------------------------------------------------

  -Total Gradient:
     Atom            X                  Y                   Z
    ------   -----------------  -----------------  -----------------
       1       -0.086778289653     0.103993325965     0.000000000000
       2       -0.011579476528    -0.072279177569    -0.000000000000
       3        0.098357766181    -0.031714148396    -0.000000000000

*** Psi4 exiting successfully. Buy a developer a beer!
