                               Psi4 1.2a1.dev429

  ==> Input File <==

--------------------------------------------------------------------------
# density-fitted hartree fock energies and gradients with 6-31g
molecule h20 {
0 1
O 0.0000000000 0.0000000000 0.0000000000
H 0.0000000000 0.0000000000 0.7000000000
H 0.0000000000 0.5000000000 -0.8660254038
}

set basis 6-31g

gradient('hf')
--------------------------------------------------------------------------

    Molecular point group: cs
  Charge       = 0
  Multiplicity = 1
  Basis Set: 6-31G
    Blend: 6-31G
  Basis Set: (6-31G AUX)
    Blend: CC-PVDZ-JKFIT

    Orbital Energies (a.u.)
    -----------------------

    Doubly Occupied:

       1Ap   -20.507197     2Ap    -1.399002     3Ap    -0.834559
       4Ap    -0.502110     1App   -0.492138

  @DF-RHF Final Energy:   -75.83665449725191

   => Energetics <=

    Nuclear Repulsion Energy =             10.6030590339499344
    One-Electron Energy =                -125.4094131550521354
    Two-Electron Energy =                  38.9696996238502891
    Total Energy =                        -75.8366544972519137
    Molecular point group: cs

    Geometry (in Angstrom), charge = 0, multiplicity = 1:

       Center              X                  Y                   Z               Mass
    ------------   -----------------  -----------------  -----------------  -----------------
           O          0.027978718318    -0.009290356013     0.000000000000    15.994914619560
           H          0.027978718318    -0.709290356013     0.000000000000     1.007825032070
           H         -0.472021281682     0.856735047787     0.000000000000     1.007825032070

  Basis Set: 6-31G
    Blend: 6-31G
  Basis Set: (6-31G AUX)
    Blend: CC-PVDZ-JKFIT

  -Total Gradient:
     Atom            X                  Y                   Z
    ------   -----------------  -----------------  -----------------
       1       -0.012936180334    -0.801003103590     0.000000000000
       2        0.033441285130     0.718669421130     0.000000000000
       3       -0.020505104796     0.082333682460     0.000000000000

*** Psi4 exiting successfully. Buy a developer a beer!
