                               Psi4 1.3.1 release

  ==> Input File <==

--------------------------------------------------------------------------
# density fitted hartree fock
molecule h2o {
0 1
H 0.0000000000 0.0000000000 0.8500000000
H 0.0000000000 0.8286887254 -0.1891427939
O 0.0000000000 0.0000000000 0.0000000000
}

set basis 6-31g
energy('hf')

--------------------------------------------------------------------------

    Molecular point group: c2v

    Geometry (in Angstrom), charge = 0, multiplicity = 1:

       Center              X                  Y                   Z               Mass
    ------------   -----------------  -----------------  -----------------  -----------------
         H            0.000000000000    -0.664556760127     0.470655216740     1.007825032230
         H           -0.000000000000     0.664556760127     0.470655216740     1.007825032230
         O           -0.000000000000     0.000000000000    -0.059311114846    15.994914619570

  Charge       = 0
  Multiplicity = 1
  Basis Set: 6-31G
    Blend: 6-31G
  Basis Set: (6-31G AUX)
    Blend: CC-PVDZ-JKFIT

    Orbital Energies [Eh]
    ---------------------

    Doubly Occupied:

       1A1   -20.540053     2A1    -1.425094     1B2    -0.771517
       3A1    -0.579695     1B1    -0.509691

  @DF-RHF Final Energy:   -75.95421658275694

   => Energetics <=

    Nuclear Repulsion Energy =             10.3591257634761682
    One-Electron Energy =                -124.9745893000042258
    Two-Electron Energy =                  38.6612469537711121
    Total Energy =                        -75.9542165827569420

  Dipole Moment: [D]
     X:    -0.0000      Y:     0.0000      Z:     2.6030     Total:     2.6030

*** Psi4 exiting successfully. Buy a developer a beer!
