                               Psi4 1.2a1.dev429

  ==> Input File <==

--------------------------------------------------------------------------
# density-fitted hartree fock energies and gradients with 6-31g
molecule h20 {
0 1
O 0.0000000000 0.0000000000 0.0000000000
H 0.0000000000 0.0000000000 1.1000000000
H 0.0000000000 0.8999026536 -1.0724622204
}

set basis 6-31g

gradient('hf')
--------------------------------------------------------------------------

    Molecular point group: cs
  Charge       = 0
  Multiplicity = 1
  Basis Set: 6-31G
    Blend: 6-31G
  Basis Set: (6-31G AUX)
    Blend: CC-PVDZ-JKFIT

    Orbital Energies (a.u.)
    -----------------------

    Doubly Occupied:

       1Ap   -20.565046     2Ap    -1.226221     3Ap    -0.600372
       1App   -0.464420     4Ap    -0.455113

  @DF-RHF Final Energy:   -75.85146275566767

   => Energetics <=

    Nuclear Repulsion Energy =              7.0974721843465414
    One-Electron Energy =                -119.2755250332197079
    Two-Electron Energy =                  36.3265900932055033
    Total Energy =                        -75.8514627556676544
    Molecular point group: cs

    Geometry (in Angstrom), charge = 0, multiplicity = 1:

       Center              X                  Y                   Z               Mass
    ------------   -----------------  -----------------  -----------------  -----------------
           O          0.050356245718     0.001540943557     0.000000000000    15.994914619560
           H          0.050356245718    -1.098459056443     0.000000000000     1.007825032070
           H         -0.849546407882     1.074003163957     0.000000000000     1.007825032070

  Basis Set: 6-31G
    Blend: 6-31G
  Basis Set: (6-31G AUX)
    Blend: CC-PVDZ-JKFIT

  -Total Gradient:
     Atom            X                  Y                   Z
    ------   -----------------  -----------------  -----------------
       1        0.028490722761    -0.025287073111     0.000000000000
       2        0.037439941991    -0.099050912157     0.000000000000
       3       -0.065930664752     0.124337985268     0.000000000000

*** Psi4 exiting successfully. Buy a developer a beer!
