                               Psi4 1.2a1.dev429

  ==> Input File <==

--------------------------------------------------------------------------
# density-fitted hartree fock energies and gradients with 6-31g
molecule h2o {
0 1
O 0.0000000000 0.0000000000 0.0000000000
H 0.0000000000 0.0000000000 1.2000000000
H 0.0000000000 0.7500000000 -1.2990381057
}

set basis 6-31g

gradient('mp2')
--------------------------------------------------------------------------

    Molecular point group: cs
  Charge       = 0
  Multiplicity = 1
  Basis Set: 6-31G
    Blend: 6-31G
  Basis Set: (6-31G AUX)
    Blend: CC-PVDZ-JKFIT

    Orbital Energies (a.u.)
    -----------------------

    Doubly Occupied:

       1Ap   -20.560742     2Ap    -1.193317     3Ap    -0.558919
       1App   -0.451764     4Ap    -0.431585

  @DF-RHF Final Energy:   -75.79084060139490

   => Energetics <=

    Nuclear Repulsion Energy =              6.5529420294712493
    One-Electron Energy =                -118.2949109415762621
    Two-Electron Energy =                  35.9511283107100965
    Total Energy =                        -75.7908406013949048
  Basis Set: (6-31G AUX)
    Blend: CC-PVDZ-RI
    Molecular point group: cs

    Geometry (in Angstrom), charge = 0, multiplicity = 1:

       Center              X                  Y                   Z               Mass
    ------------   -----------------  -----------------  -----------------  -----------------
           O          0.041968077477    -0.005541918524     0.000000000000    15.994914619560
           H          0.041968077477    -1.205541918524     0.000000000000     1.007825032070
           H         -0.708031922523     1.293496187176     0.000000000000     1.007825032070

  Basis Set: 6-31G
    Blend: 6-31G
  Basis Set: (6-31G AUX)
    Blend: CC-PVDZ-JKFIT
  Basis Set: (6-31G AUX)
    Blend: CC-PVDZ-JKFIT
	 Reference Energy          =     -75.7908406013949048 [Eh]
	 Singles Energy            =      -0.0000000000000000 [Eh]
	 Same-Spin Energy          =      -0.0361298988739087 [Eh]
	 Opposite-Spin Energy      =      -0.1222954869921263 [Eh]
	 Correlation Energy        =      -0.1584253858660350 [Eh]
	 Total Energy              =     -75.9492659872609437 [Eh]

	 ================> DF-SCS-MP2 Energies <==================
	-----------------------------------------------------------
	 SCS Same-Spin Scale       =       0.3333333333333333 [-]
	 SCS Opposite-Spin Scale   =       1.2000000000000000 [-]
	 SCS Same-Spin Energy      =      -0.0120432996246362 [Eh]
	 SCS Opposite-Spin Energy  =      -0.1467545843905515 [Eh]
	 SCS Correlation Energy    =      -0.1587978840151877 [Eh]
	 SCS Total Energy          =     -75.9496384854100910 [Eh]
	-----------------------------------------------------------

  -Total Gradient:
     Atom            X                  Y                   Z
    ------   -----------------  -----------------  -----------------
       1       -0.028729589687    -0.007340151820    -0.000000000000
       2        0.046275817686    -0.097092115135     0.000000000000
       3       -0.017546227999     0.104432266955     0.000000000000

*** Psi4 exiting successfully. Buy a developer a beer!
