                               Psi4 1.2a1.dev429

  ==> Input File <==

--------------------------------------------------------------------------
# density-fitted hartree fock energies and gradients with 6-31g
molecule h20 {
0 1
O 0.0000000000 0.0000000000 0.0000000000
H 0.0000000000 0.0000000000 0.7000000000
H 0.0000000000 1.0724622204 -0.8999026536
}

set basis 6-31g

gradient('hf')
--------------------------------------------------------------------------

    Molecular point group: cs
  Charge       = 0
  Multiplicity = 1
  Basis Set: 6-31G
    Blend: 6-31G
  Basis Set: (6-31G AUX)
    Blend: CC-PVDZ-JKFIT

    Orbital Energies (a.u.)
    -----------------------

    Doubly Occupied:

       1Ap   -20.538529     2Ap    -1.388560     3Ap    -0.701749
       1App   -0.485753     4Ap    -0.485279

  @DF-RHF Final Energy:   -75.75058324761197

   => Energetics <=

    Nuclear Repulsion Energy =              9.3463494540254235
    One-Electron Energy =                -122.9941244559115461
    Two-Electron Energy =                  37.8971917542741465
    Total Energy =                        -75.7505832476119707
    Molecular point group: cs

    Geometry (in Angstrom), charge = 0, multiplicity = 1:

       Center              X                  Y                   Z               Mass
    ------------   -----------------  -----------------  -----------------  -----------------
           O          0.060012236743    -0.011186040072     0.000000000000    15.994914619560
           H          0.060012236743    -0.711186040072     0.000000000000     1.007825032070
           H         -1.012449983657     0.888716613528     0.000000000000     1.007825032070

  Basis Set: 6-31G
    Blend: 6-31G
  Basis Set: (6-31G AUX)
    Blend: CC-PVDZ-JKFIT

  -Total Gradient:
     Atom            X                  Y                   Z
    ------   -----------------  -----------------  -----------------
       1        0.054546375496    -0.854266398404     0.000000000000
       2        0.044127007625     0.742667740745     0.000000000000
       3       -0.098673383120     0.111598657658     0.000000000000

*** Psi4 exiting successfully. Buy a developer a beer!
