                               Psi4 1.2a1.dev429

  ==> Input File <==

--------------------------------------------------------------------------
# density-fitted hartree fock energies and gradients with 6-31g
molecule o2 {
0 3
O 0.0000000000 0.0000000000 0.0000000000
O 0.0000000000 0.0000000000 1.3656565657
}

set basis 6-31g
set reference rohf

gradient('scf')
--------------------------------------------------------------------------

    Molecular point group: d2h
  Charge       = 0
  Multiplicity = 3
  Basis Set: 6-31G
    Blend: 6-31G
  Basis Set: (6-31G AUX)
    Blend: CC-PVDZ-JKFIT

    Orbital Energies (a.u.)
    -----------------------

    Doubly Occupied:

       1Ag   -20.773742     1B1u  -20.773239     2Ag    -1.559759
       2B1u   -1.154664     3Ag    -0.678359     1B2u   -0.660455
       1B3u   -0.660455

    Singly Occupied:

       1B3g   -0.282296     1B2g   -0.282296

  @DF-ROHF Final Energy:  -149.49176354602247

   => Energetics <=

    Nuclear Repulsion Energy =             24.7993106029556465
    One-Electron Energy =                -254.8654225855665345
    Two-Electron Energy =                  80.5743484365884512
    Total Energy =                       -149.4917635460224403
    Molecular point group: d2h

    Geometry (in Angstrom), charge = 0, multiplicity = 3:

       Center              X                  Y                   Z               Mass
    ------------   -----------------  -----------------  -----------------  -----------------
           O          0.000000000000     0.000000000000    -0.682828282850    15.994914619560
           O          0.000000000000     0.000000000000     0.682828282850    15.994914619560

  Basis Set: 6-31G
    Blend: 6-31G
  Basis Set: (6-31G AUX)
    Blend: CC-PVDZ-JKFIT

  -Total Gradient:
     Atom            X                  Y                   Z
    ------   -----------------  -----------------  -----------------
       1        0.000000000000     0.000000000000    -0.179770416275
       2        0.000000000000    -0.000000000000     0.179770416275

*** Psi4 exiting successfully. Buy a developer a beer!
