                               Psi4 1.2a1.dev429

  ==> Input File <==

--------------------------------------------------------------------------
# density-fitted hartree fock energies and gradients with 6-31g
molecule h20 {
0 1
O 0.0000000000 0.0000000000 0.0000000000
O 0.0000000000 0.0000000000 1.3656565657
}

set basis 6-31g

gradient('hf')
--------------------------------------------------------------------------

    Molecular point group: d2h
  Charge       = 0
  Multiplicity = 1
  Basis Set: 6-31G
    Blend: 6-31G
  Basis Set: (6-31G AUX)
    Blend: CC-PVDZ-JKFIT

    Orbital Energies (a.u.)
    -----------------------

    Doubly Occupied:

       1Ag   -20.782081     1B1u  -20.781573     2Ag    -1.563795
       2B1u   -1.158372     1B2u   -0.735214     3Ag    -0.682143
       1B3u   -0.594491     1B3g   -0.535165

  @DF-RHF Final Energy:  -149.42766987000311

   => Energetics <=

    Nuclear Repulsion Energy =             24.7993106029556465
    One-Electron Energy =                -254.7882929682508006
    Two-Electron Energy =                  80.5613124952920430
    Total Energy =                       -149.4276698700031147
    Molecular point group: d2h

    Geometry (in Angstrom), charge = 0, multiplicity = 1:

       Center              X                  Y                   Z               Mass
    ------------   -----------------  -----------------  -----------------  -----------------
           O          0.000000000000     0.000000000000    -0.682828282850    15.994914619560
           O          0.000000000000     0.000000000000     0.682828282850    15.994914619560

  Basis Set: 6-31G
    Blend: 6-31G
  Basis Set: (6-31G AUX)
    Blend: CC-PVDZ-JKFIT

  -Total Gradient:
     Atom            X                  Y                   Z
    ------   -----------------  -----------------  -----------------
       1       -0.000000000000     0.000000000000    -0.172097852540
       2        0.000000000000     0.000000000000     0.172097852540

*** Psi4 exiting successfully. Buy a developer a beer!
