                               Psi4 1.2a1.dev429

  ==> Input File <==

--------------------------------------------------------------------------
# density-fitted hartree fock energies and gradients with 6-31g
molecule h2o {
0 1
O 0.0000000000 0.0000000000 0.0000000000
H 0.0000000000 0.0000000000 1.0000000000
H 0.0000000000 1.1258330249 -0.6500000000
}

set basis 6-31g

gradient('mp2')
--------------------------------------------------------------------------

    Molecular point group: cs
  Charge       = 0
  Multiplicity = 1
  Basis Set: 6-31G
    Blend: 6-31G
  Basis Set: (6-31G AUX)
    Blend: CC-PVDZ-JKFIT

    Orbital Energies (a.u.)
    -----------------------

    Doubly Occupied:

       1Ap   -20.577755     2Ap    -1.276777     3Ap    -0.638775
       4Ap    -0.498556     1App   -0.485533

  @DF-RHF Final Energy:   -75.91400751341840

   => Energetics <=

    Nuclear Repulsion Energy =              7.7548127600236620
    One-Electron Energy =                -120.3828466084015218
    Two-Electron Energy =                  36.7140263349594704
    Total Energy =                        -75.9140075134183832
  Basis Set: (6-31G AUX)
    Blend: CC-PVDZ-RI
    Molecular point group: cs

    Geometry (in Angstrom), charge = 0, multiplicity = 1:

       Center              X                  Y                   Z               Mass
    ------------   -----------------  -----------------  -----------------  -----------------
           O          0.062998730154     0.019585102823     0.000000000000    15.994914619560
           H          0.062998730154    -0.980414897177     0.000000000000     1.007825032070
           H         -1.062834294746     0.669585102823     0.000000000000     1.007825032070

  Basis Set: 6-31G
    Blend: 6-31G
  Basis Set: (6-31G AUX)
    Blend: CC-PVDZ-JKFIT
  Basis Set: (6-31G AUX)
    Blend: CC-PVDZ-JKFIT
	 Reference Energy          =     -75.9140075134183974 [Eh]
	 Singles Energy            =      -0.0000000000000000 [Eh]
	 Same-Spin Energy          =      -0.0333878236997028 [Eh]
	 Opposite-Spin Energy      =      -0.1111226870162654 [Eh]
	 Correlation Energy        =      -0.1445105107159682 [Eh]
	 Total Energy              =     -76.0585180241343721 [Eh]

	 ================> DF-SCS-MP2 Energies <==================
	-----------------------------------------------------------
	 SCS Same-Spin Scale       =       0.3333333333333333 [-]
	 SCS Opposite-Spin Scale   =       1.2000000000000000 [-]
	 SCS Same-Spin Energy      =      -0.0111292745665676 [Eh]
	 SCS Opposite-Spin Energy  =      -0.1333472244195185 [Eh]
	 SCS Correlation Energy    =      -0.1444764989860861 [Eh]
	 SCS Total Energy          =     -76.0584840124044774 [Eh]
	-----------------------------------------------------------

  -Total Gradient:
     Atom            X                  Y                   Z
    ------   -----------------  -----------------  -----------------
       1        0.062769994098    -0.056856962564    -0.000000000000
       2        0.026198724154    -0.017779673717    -0.000000000000
       3       -0.088968718251     0.074636636281     0.000000000000

*** Psi4 exiting successfully. Buy a developer a beer!
