                               Psi4 1.2a1.dev429

  ==> Input File <==

--------------------------------------------------------------------------
# density-fitted hartree fock energies and gradients with 6-31g
molecule h20 {
0 1
O 0.0000000000 0.0000000000 0.0000000000
H 0.0000000000 0.0000000000 0.8000000000
H 0.0000000000 0.9958577761 -0.8356238926
}

set basis 6-31g

gradient('hf')
--------------------------------------------------------------------------

    Molecular point group: cs
  Charge       = 0
  Multiplicity = 1
  Basis Set: 6-31G
    Blend: 6-31G
  Basis Set: (6-31G AUX)
    Blend: CC-PVDZ-JKFIT

    Orbital Energies (a.u.)
    -----------------------

    Doubly Occupied:

       1Ap   -20.544188     2Ap    -1.338654     3Ap    -0.696391
       4Ap    -0.491971     1App   -0.482903

  @DF-RHF Final Energy:   -75.87191970664176

   => Energetics <=

    Nuclear Repulsion Energy =              8.8245885058340381
    One-Electron Energy =                -122.2848047880989100
    Two-Electron Energy =                  37.5882965756230973
    Total Energy =                        -75.8719197066417621
    Molecular point group: cs

    Geometry (in Angstrom), charge = 0, multiplicity = 1:

       Center              X                  Y                   Z               Mass
    ------------   -----------------  -----------------  -----------------  -----------------
           O          0.055725648405    -0.001993421713     0.000000000000    15.994914619560
           H          0.055725648405    -0.801993421713     0.000000000000     1.007825032070
           H         -0.940132127695     0.833630470887     0.000000000000     1.007825032070

  Basis Set: 6-31G
    Blend: 6-31G
  Basis Set: (6-31G AUX)
    Blend: CC-PVDZ-JKFIT

  -Total Gradient:
     Atom            X                  Y                   Z
    ------   -----------------  -----------------  -----------------
       1        0.060238233948    -0.407422479656     0.000000000000
       2        0.037640583743     0.295054681146     0.000000000000
       3       -0.097878817691     0.112367798511     0.000000000000

*** Psi4 exiting successfully. Buy a developer a beer!
