                               Psi4 1.2a1.dev429

  ==> Input File <==

--------------------------------------------------------------------------
# density-fitted hartree fock energies and gradients with 6-31g
molecule h2o {
0 1
O 0.0000000000 0.0000000000 0.0000000000
H 0.0000000000 0.0000000000 1.3000000000
H 0.0000000000 0.7500000000 -1.2990381057
}

set basis 6-31g

gradient('mp2')
--------------------------------------------------------------------------

    Molecular point group: cs
  Charge       = 0
  Multiplicity = 1
  Basis Set: 6-31G
    Blend: 6-31G
  Basis Set: (6-31G AUX)
    Blend: CC-PVDZ-JKFIT

    Orbital Energies (a.u.)
    -----------------------

    Doubly Occupied:

       1Ap   -20.569245     2Ap    -1.183119     3Ap    -0.537903
       1App   -0.452853     4Ap    -0.430015

  @DF-RHF Final Energy:   -75.76732454086711

   => Energetics <=

    Nuclear Repulsion Energy =              6.2743765206810300
    One-Electron Energy =                -117.7371329365439436
    Two-Electron Energy =                  35.6954318749958048
    Total Energy =                        -75.7673245408671079
  Basis Set: (6-31G AUX)
    Blend: CC-PVDZ-RI
    Molecular point group: cs

    Geometry (in Angstrom), charge = 0, multiplicity = 1:

       Center              X                  Y                   Z               Mass
    ------------   -----------------  -----------------  -----------------  -----------------
           O          0.041968077477     0.000053825139     0.000000000000    15.994914619560
           H          0.041968077477    -1.299946174861     0.000000000000     1.007825032070
           H         -0.708031922523     1.299091930839     0.000000000000     1.007825032070

  Basis Set: 6-31G
    Blend: 6-31G
  Basis Set: (6-31G AUX)
    Blend: CC-PVDZ-JKFIT
  Basis Set: (6-31G AUX)
    Blend: CC-PVDZ-JKFIT
	 Reference Energy          =     -75.7673245408671079 [Eh]
	 Singles Energy            =      -0.0000000000000000 [Eh]
	 Same-Spin Energy          =      -0.0368341518644925 [Eh]
	 Opposite-Spin Energy      =      -0.1260520513668127 [Eh]
	 Correlation Energy        =      -0.1628862032313051 [Eh]
	 Total Energy              =     -75.9302107440984173 [Eh]

	 ================> DF-SCS-MP2 Energies <==================
	-----------------------------------------------------------
	 SCS Same-Spin Scale       =       0.3333333333333333 [-]
	 SCS Opposite-Spin Scale   =       1.2000000000000000 [-]
	 SCS Same-Spin Energy      =      -0.0122780506214975 [Eh]
	 SCS Opposite-Spin Energy  =      -0.1512624616401752 [Eh]
	 SCS Correlation Energy    =      -0.1635405122616727 [Eh]
	 SCS Total Energy          =     -75.9308650531287839 [Eh]
	-----------------------------------------------------------

  -Total Gradient:
     Atom            X                  Y                   Z
    ------   -----------------  -----------------  -----------------
       1       -0.029571057314     0.000608834191    -0.000000000000
       2        0.044203050587    -0.102570810611    -0.000000000000
       3       -0.014631993274     0.101961976420     0.000000000000

*** Psi4 exiting successfully. Buy a developer a beer!
