                               Psi4 1.2a1.dev429

  ==> Input File <==

--------------------------------------------------------------------------
# density-fitted hartree fock energies and gradients with 6-31g
molecule h2o {
0 1
O 0.0000000000 0.0000000000 0.0000000000
H 0.0000000000 0.0000000000 1.2000000000
H 0.0000000000 1.2216004070 -0.4446261863
}

set basis 6-31g

gradient('mp2')
--------------------------------------------------------------------------

    Molecular point group: cs
  Charge       = 0
  Multiplicity = 1
  Basis Set: 6-31G
    Blend: 6-31G
  Basis Set: (6-31G AUX)
    Blend: CC-PVDZ-JKFIT

    Orbital Energies (a.u.)
    -----------------------

    Doubly Occupied:

       1Ap   -20.608244     2Ap    -1.248122     3Ap    -0.584438
       4Ap    -0.506286     1App   -0.492221

  @DF-RHF Final Energy:   -75.88497950633494

   => Energetics <=

    Nuclear Repulsion Energy =              7.0426243285706560
    One-Electron Energy =                -118.9765868121370289
    Two-Electron Energy =                  36.0489829772314252
    Total Energy =                        -75.8849795063349575
  Basis Set: (6-31G AUX)
    Blend: CC-PVDZ-RI
    Molecular point group: cs

    Geometry (in Angstrom), charge = 0, multiplicity = 1:

       Center              X                  Y                   Z               Mass
    ------------   -----------------  -----------------  -----------------  -----------------
           O          0.068357627369     0.042268782317     0.000000000000    15.994914619560
           H          0.068357627369    -1.157731217683     0.000000000000     1.007825032070
           H         -1.153242779631     0.486894968617     0.000000000000     1.007825032070

  Basis Set: 6-31G
    Blend: 6-31G
  Basis Set: (6-31G AUX)
    Blend: CC-PVDZ-JKFIT
  Basis Set: (6-31G AUX)
    Blend: CC-PVDZ-JKFIT
	 Reference Energy          =     -75.8849795063349433 [Eh]
	 Singles Energy            =      -0.0000000000000000 [Eh]
	 Same-Spin Energy          =      -0.0355870302087199 [Eh]
	 Opposite-Spin Energy      =      -0.1202757656156571 [Eh]
	 Correlation Energy        =      -0.1558627958243770 [Eh]
	 Total Energy              =     -76.0408423021593194 [Eh]

	 ================> DF-SCS-MP2 Energies <==================
	-----------------------------------------------------------
	 SCS Same-Spin Scale       =       0.3333333333333333 [-]
	 SCS Opposite-Spin Scale   =       1.2000000000000000 [-]
	 SCS Same-Spin Energy      =      -0.0118623434029066 [Eh]
	 SCS Opposite-Spin Energy  =      -0.1443309187387885 [Eh]
	 SCS Correlation Energy    =      -0.1561932621416952 [Eh]
	 SCS Total Energy          =     -76.0411727684766419 [Eh]
	-----------------------------------------------------------

  -Total Gradient:
     Atom            X                  Y                   Z
    ------   -----------------  -----------------  -----------------
       1        0.078566278336     0.045025430788    -0.000000000000
       2        0.015294585153    -0.094212130240     0.000000000000
       3       -0.093860863489     0.049186699452    -0.000000000000

*** Psi4 exiting successfully. Buy a developer a beer!
