                               Psi4 1.3.1 release

  ==> Input File <==

--------------------------------------------------------------------------
# density fitted hartree fock
molecule h2o {
0 1
H 0.0000000000 0.0000000000 1.0500000000
H 0.0000000000 0.9500000000 0.0000000000
O 0.0000000000 0.0000000000 0.0000000000
}

set basis 6-31g
energy('hf')

--------------------------------------------------------------------------

    Molecular point group: cs

    Geometry (in Angstrom), charge = 0, multiplicity = 1:

       Center              X                  Y                   Z               Mass
    ------------   -----------------  -----------------  -----------------  -----------------
         H            0.053159564812    -0.991244691524     0.000000000000     1.007825032230
         H           -0.896840435188     0.058755308476     0.000000000000     1.007825032230
         O            0.053159564812     0.058755308476     0.000000000000    15.994914619570

  Charge       = 0
  Multiplicity = 1
  Basis Set: 6-31G
    Blend: 6-31G
  Basis Set: (6-31G AUX)
    Blend: CC-PVDZ-JKFIT

    Orbital Energies [Eh]
    ---------------------

    Doubly Occupied:

       1Ap   -20.579023     2Ap    -1.353067     3Ap    -0.662885
       4Ap    -0.581084     1App   -0.506776

  @DF-RHF Final Energy:   -75.96600271397381

   => Energetics <=

    Nuclear Repulsion Energy =              8.8617734477877548
    One-Electron Energy =                -122.2898798377433138
    Two-Electron Energy =                  37.4621036759817514
    Total Energy =                        -75.9660027139738077

  Dipole Moment: [D]
     X:    -2.0317      Y:    -2.0170      Z:     0.0000     Total:     2.8629

*** Psi4 exiting successfully. Buy a developer a beer!
