                               Psi4 1.2a1.dev429

  ==> Input File <==

--------------------------------------------------------------------------
# density-fitted hartree fock energies and gradients with 6-31g
molecule h20 {
0 1
O 0.0000000000 0.0000000000 0.0000000000
H 0.0000000000 0.0000000000 0.7000000000
H 0.0000000000 0.7660444431 -0.6427876097
}

set basis 6-31g

gradient('hf')
--------------------------------------------------------------------------

    Molecular point group: cs
  Charge       = 0
  Multiplicity = 1
  Basis Set: 6-31G
    Blend: 6-31G
  Basis Set: (6-31G AUX)
    Blend: CC-PVDZ-JKFIT

    Orbital Energies (a.u.)
    -----------------------

    Doubly Occupied:

       1Ap   -20.522008     2Ap    -1.420439     3Ap    -0.815482
       4Ap    -0.529083     1App   -0.500702

  @DF-RHF Final Energy:   -75.85122947749763

   => Energetics <=

    Nuclear Repulsion Energy =             10.6234604476662184
    One-Electron Energy =                -125.3739525183661385
    Two-Electron Energy =                  38.8992625932022946
    Total Energy =                        -75.8512294774976255
    Molecular point group: cs

    Geometry (in Angstrom), charge = 0, multiplicity = 1:

       Center              X                  Y                   Z               Mass
    ------------   -----------------  -----------------  -----------------  -----------------
           O          0.042865883385     0.003201458705     0.000000000000    15.994914619560
           H          0.042865883385    -0.696798541295     0.000000000000     1.007825032070
           H         -0.723178559715     0.645989068405     0.000000000000     1.007825032070

  Basis Set: 6-31G
    Blend: 6-31G
  Basis Set: (6-31G AUX)
    Blend: CC-PVDZ-JKFIT

  -Total Gradient:
     Atom            X                  Y                   Z
    ------   -----------------  -----------------  -----------------
       1        0.016661782595    -0.785209981807     0.000000000000
       2        0.024610101313     0.728090415856     0.000000000000
       3       -0.041271883908     0.057119565950     0.000000000000

*** Psi4 exiting successfully. Buy a developer a beer!
