                               Psi4 1.2a1.dev429

  ==> Input File <==

--------------------------------------------------------------------------
# density-fitted hartree fock energies and gradients with 6-31g
molecule h20 {
0 1
O 0.0000000000 0.0000000000 0.0000000000
H 0.0000000000 0.0000000000 0.7000000000
H 0.0000000000 0.4788282007 -1.3155696691
}

set basis 6-31g

gradient('hf')
--------------------------------------------------------------------------

    Molecular point group: cs
  Charge       = 0
  Multiplicity = 1
  Basis Set: 6-31G
    Blend: 6-31G
  Basis Set: (6-31G AUX)
    Blend: CC-PVDZ-JKFIT

    Orbital Energies (a.u.)
    -----------------------

    Doubly Occupied:

       1Ap   -20.493093     2Ap    -1.346751     3Ap    -0.694119
       1App   -0.453938     4Ap    -0.450092

  @DF-RHF Final Energy:   -75.71551882989853

   => Energetics <=

    Nuclear Repulsion Energy =              9.3270449449639212
    One-Electron Energy =                -123.2091430450354324
    Two-Electron Energy =                  38.1665792701730027
    Total Energy =                        -75.7155188298985138
    Molecular point group: cs

    Geometry (in Angstrom), charge = 0, multiplicity = 1:

       Center              X                  Y                   Z               Mass
    ------------   -----------------  -----------------  -----------------  -----------------
           O          0.026793998700    -0.034445700754     0.000000000000    15.994914619560
           H          0.026793998700    -0.734445700754     0.000000000000     1.007825032070
           H         -0.452034202000     1.281123968346     0.000000000000     1.007825032070

  Basis Set: 6-31G
    Blend: 6-31G
  Basis Set: (6-31G AUX)
    Blend: CC-PVDZ-JKFIT

  -Total Gradient:
     Atom            X                  Y                   Z
    ------   -----------------  -----------------  -----------------
       1       -0.009992399963    -0.894644424492     0.000000000000
       2        0.044688844507     0.733986007452     0.000000000000
       3       -0.034696444543     0.160658417040     0.000000000000

*** Psi4 exiting successfully. Buy a developer a beer!
