                               Psi4 1.2.1 release

  ==> Input File <==

--------------------------------------------------------------------------
# density fitted hartree fock
molecule h2o {
0 1
H 0.0000000000 0.0000000000 1.2000000000
H 0.0000000000 0.9375000000 0.0000000000
O 0.0000000000 0.0000000000 0.0000000000
}

set basis 6-31g
energy('hf')

--------------------------------------------------------------------------

    Molecular point group: cs

    Geometry (in Angstrom), charge = 0, multiplicity = 1:

       Center              X                  Y                   Z               Mass
    ------------   -----------------  -----------------  -----------------  -----------------
         H            0.052460096846    -1.132851076037     0.000000000000     1.007825032070
         H           -0.885039903154     0.067148923963     0.000000000000     1.007825032070
         O            0.052460096846     0.067148923963     0.000000000000    15.994914619560

  Charge       = 0
  Multiplicity = 1
  Basis Set: 6-31G
    Blend: 6-31G
  Basis Set: (6-31G AUX)
    Blend: CC-PVDZ-JKFIT

    Orbital Energies [Eh]
    ---------------------

    Doubly Occupied:

       1Ap   -20.591415     2Ap    -1.333083     3Ap    -0.644723
       4Ap    -0.559453     1App   -0.506333

  @DF-RHF Final Energy:   -75.93927375539808

   => Energetics <=

    Nuclear Repulsion Energy =              8.3909973525583741
    One-Electron Energy =                -121.3905215238211497
    Two-Electron Energy =                  37.0602504158647150
    Total Energy =                        -75.9392737553980623

  Dipole Moment: [D]
     X:    -2.0568      Y:    -1.9775      Z:     0.0000     Total:     2.8532

*** Psi4 exiting successfully. Buy a developer a beer!
