                               Psi4 1.2a1.dev429

  ==> Input File <==

--------------------------------------------------------------------------
# density-fitted hartree fock energies and gradients with 6-31g
molecule h20 {
0 1
O 0.0000000000 0.0000000000 0.0000000000
O 0.0000000000 0.0000000000 0.9202020202
}

set basis 6-31g

gradient('hf')
--------------------------------------------------------------------------

    Molecular point group: d2h
  Charge       = 0
  Multiplicity = 1
  Basis Set: 6-31G
    Blend: 6-31G
  Basis Set: (6-31G AUX)
    Blend: CC-PVDZ-JKFIT

    Orbital Energies (a.u.)
    -----------------------

    Doubly Occupied:

       1Ag   -20.719150     1B1u  -20.714368     2Ag    -2.059734
       2B1u   -0.992111     1B3u   -0.938859     1B2u   -0.844623
       3Ag    -0.810816     1B2g   -0.330830

  @DF-RHF Final Energy:  -149.19761942238446

   => Energetics <=

    Nuclear Repulsion Energy =             36.8042458137607227
    One-Electron Energy =                -277.1827496047500290
    Two-Electron Energy =                  91.1808843686048363
    Total Energy =                       -149.1976194223844630
    Molecular point group: d2h

    Geometry (in Angstrom), charge = 0, multiplicity = 1:

       Center              X                  Y                   Z               Mass
    ------------   -----------------  -----------------  -----------------  -----------------
           O          0.000000000000     0.000000000000    -0.460101010100    15.994914619560
           O          0.000000000000     0.000000000000     0.460101010100    15.994914619560

  Basis Set: 6-31G
    Blend: 6-31G
  Basis Set: (6-31G AUX)
    Blend: CC-PVDZ-JKFIT

  -Total Gradient:
     Atom            X                  Y                   Z
    ------   -----------------  -----------------  -----------------
       1       -0.000000000000     0.000000000000     1.438767315943
       2        0.000000000000    -0.000000000000    -1.438767315943

*** Psi4 exiting successfully. Buy a developer a beer!
