                               Psi4 1.2a1.dev429

  ==> Input File <==

--------------------------------------------------------------------------
# density-fitted hartree fock energies and gradients with 6-31g
molecule o2 {
0 3
O 0.0000000000 0.0000000000 0.0000000000
O 0.0000000000 0.0000000000 1.0428571429
}

set basis 6-31g
set reference rohf

energy('scf')
--------------------------------------------------------------------------

    Molecular point group: d2h

    Geometry (in Angstrom), charge = 0, multiplicity = 3:

       Center              X                  Y                   Z               Mass
    ------------   -----------------  -----------------  -----------------  -----------------
           O          0.000000000000     0.000000000000    -0.521428571450    15.994914619560
           O          0.000000000000     0.000000000000     0.521428571450    15.994914619560

  Charge       = 0
  Multiplicity = 3
  Basis Set: 6-31G
    Blend: 6-31G
  Basis Set: (6-31G AUX)
    Blend: CC-PVDZ-JKFIT

    Orbital Energies (a.u.)
    -----------------------

    Doubly Occupied:

       1Ag   -20.719132     1B1u  -20.717195     2Ag    -1.878120
       2B1u   -1.036385     1B3u   -0.797716     1B2u   -0.797716
       3Ag    -0.770652

    Singly Occupied:

       1B3g   -0.148773     1B2g   -0.148773

  @DF-ROHF Final Energy:  -149.47405129457954

   => Energetics <=

    Nuclear Repulsion Energy =             32.4755327998051087
    One-Electron Energy =                -269.5082368896775051
    Two-Electron Energy =                  87.5586527952928577
    Total Energy =                       -149.4740512945795388
*** Psi4 exiting successfully. Buy a developer a beer!
