                               Psi4 1.2a1.dev429

  ==> Input File <==

--------------------------------------------------------------------------
# density-fitted hartree fock energies and gradients with 6-31g
molecule h20 {
0 1
O 0.0000000000 0.0000000000 0.0000000000
H 0.0000000000 0.0000000000 0.8000000000
H 0.0000000000 0.7000000000 -1.2124355653
}

set basis 6-31g

gradient('hf')
--------------------------------------------------------------------------

    Molecular point group: cs
  Charge       = 0
  Multiplicity = 1
  Basis Set: 6-31G
    Blend: 6-31G
  Basis Set: (6-31G AUX)
    Blend: CC-PVDZ-JKFIT

    Orbital Energies (a.u.)
    -----------------------

    Doubly Occupied:

       1Ap   -20.517586     2Ap    -1.307833     3Ap    -0.674202
       1App   -0.459838     4Ap    -0.454192

  @DF-RHF Final Energy:   -75.81969901859649

   => Energetics <=

    Nuclear Repulsion Energy =              8.5639998388970113
    One-Electron Energy =                -121.9400966940929436
    Two-Electron Energy =                  37.5563978365994302
    Total Energy =                        -75.8196990185964950
    Molecular point group: cs

    Geometry (in Angstrom), charge = 0, multiplicity = 1:

       Center              X                  Y                   Z               Mass
    ------------   -----------------  -----------------  -----------------  -----------------
           O          0.039170205645    -0.023078837012     0.000000000000    15.994914619560
           H          0.039170205645    -0.823078837012     0.000000000000     1.007825032070
           H         -0.660829794355     1.189356728288     0.000000000000     1.007825032070

  Basis Set: 6-31G
    Blend: 6-31G
  Basis Set: (6-31G AUX)
    Blend: CC-PVDZ-JKFIT

  -Total Gradient:
     Atom            X                  Y                   Z
    ------   -----------------  -----------------  -----------------
       1        0.003811989663    -0.439316616660     0.000000000000
       2        0.048474563406     0.293354148121     0.000000000000
       3       -0.052286553069     0.145962468539     0.000000000000

*** Psi4 exiting successfully. Buy a developer a beer!
