                               Psi4 1.3.1 release

  ==> Input File <==

--------------------------------------------------------------------------
# density fitted MP2
molecule h2o {
0 1
H 0.0000000000 0.0000000000 1.1125000000
H 0.0000000000 0.8876760389 -0.5125000000
O 0.0000000000 0.0000000000 0.0000000000
}

set basis 6-31g
energy('mp2')

--------------------------------------------------------------------------

    Molecular point group: cs

    Geometry (in Angstrom), charge = 0, multiplicity = 1:

       Center              X                  Y                   Z               Mass
    ------------   -----------------  -----------------  -----------------  -----------------
         H            0.049672075707    -1.078925538014     0.000000000000     1.007825032230
         H           -0.838003963193     0.546074461986     0.000000000000     1.007825032230
         O            0.049672075707     0.033574461986     0.000000000000    15.994914619570

  Charge       = 0
  Multiplicity = 1
  Basis Set: 6-31G
    Blend: 6-31G
  Basis Set: (6-31G AUX)
    Blend: CC-PVDZ-JKFIT

    Orbital Energies [Eh]
    ---------------------

    Doubly Occupied:

       1Ap   -20.566934     2Ap    -1.291202     3Ap    -0.670508
       4Ap    -0.515075     1App   -0.486883

  @DF-RHF Final Energy:   -75.95696197868045

   => Energetics <=

    Nuclear Repulsion Energy =              8.2212702899966583
    One-Electron Energy =                -121.2952601380223427
    Two-Electron Energy =                  37.1170278693452360
    Total Energy =                        -75.9569619786804537

  Dipole Moment: [D]
     X:    -2.0133      Y:    -1.2374      Z:     0.0000     Total:     2.3632

  Basis Set: (6-31G AUX)
    Blend: CC-PVDZ-RI
	 Reference Energy          =     -75.9569619786804537 [Eh]
	 Singles Energy            =      -0.0000000000000000 [Eh]
	 Same-Spin Energy          =      -0.0323005211316143 [Eh]
	 Opposite-Spin Energy      =      -0.1052931872191455 [Eh]
	 Correlation Energy        =      -0.1375937083507598 [Eh]
	 Total Energy              =     -76.0945556870312174 [Eh]

	 ================> DF-SCS-MP2 Energies <==================
	-----------------------------------------------------------
	 SCS Same-Spin Scale       =       0.3333333333333333 [-]
	 SCS Opposite-Spin Scale   =       1.2000000000000000 [-]
	 SCS Same-Spin Energy      =      -0.0107668403772048 [Eh]
	 SCS Opposite-Spin Energy  =      -0.1263518246629746 [Eh]
	 SCS Correlation Energy    =      -0.1371186650401794 [Eh]
	 SCS Total Energy          =     -76.0940806437206305 [Eh]
	-----------------------------------------------------------

*** Psi4 exiting successfully. Buy a developer a beer!
