                               Psi4 1.2a1.dev429

  ==> Input File <==

--------------------------------------------------------------------------
# density-fitted hartree fock energies and gradients with 6-31g
molecule h2o {
0 1
O 0.0000000000 0.0000000000 0.0000000000
H 0.0000000000 0.0000000000 1.1000000000
H 0.0000000000 0.7000000000 -1.2124355653
}

set basis 6-31g

gradient('mp2')
--------------------------------------------------------------------------

    Molecular point group: cs
  Charge       = 0
  Multiplicity = 1
  Basis Set: 6-31G
    Blend: 6-31G
  Basis Set: (6-31G AUX)
    Blend: CC-PVDZ-JKFIT

    Orbital Energies (a.u.)
    -----------------------

    Doubly Occupied:

       1Ap   -20.546614     2Ap    -1.212539     3Ap    -0.597128
       1App   -0.451358     4Ap    -0.441402

  @DF-RHF Final Energy:   -75.83748422069272

   => Energetics <=

    Nuclear Repulsion Energy =              7.0914559114637106
    One-Electron Energy =                -119.3597984103951148
    Two-Electron Energy =                  36.4308582782386878
    Total Energy =                        -75.8374842206927156
  Basis Set: (6-31G AUX)
    Blend: CC-PVDZ-RI
    Molecular point group: cs

    Geometry (in Angstrom), charge = 0, multiplicity = 1:

       Center              X                  Y                   Z               Mass
    ------------   -----------------  -----------------  -----------------  -----------------
           O          0.039170205645    -0.006291606021     0.000000000000    15.994914619560
           H          0.039170205645    -1.106291606021     0.000000000000     1.007825032070
           H         -0.660829794355     1.206143959279     0.000000000000     1.007825032070

  Basis Set: 6-31G
    Blend: 6-31G
  Basis Set: (6-31G AUX)
    Blend: CC-PVDZ-JKFIT
  Basis Set: (6-31G AUX)
    Blend: CC-PVDZ-JKFIT
	 Reference Energy          =     -75.8374842206927156 [Eh]
	 Singles Energy            =      -0.0000000000000000 [Eh]
	 Same-Spin Energy          =      -0.0347377898072009 [Eh]
	 Opposite-Spin Energy      =      -0.1143276811497069 [Eh]
	 Correlation Energy        =      -0.1490654709569078 [Eh]
	 Total Energy              =     -75.9865496916496284 [Eh]

	 ================> DF-SCS-MP2 Energies <==================
	-----------------------------------------------------------
	 SCS Same-Spin Scale       =       0.3333333333333333 [-]
	 SCS Opposite-Spin Scale   =       1.2000000000000000 [-]
	 SCS Same-Spin Energy      =      -0.0115792632690670 [Eh]
	 SCS Opposite-Spin Energy  =      -0.1371932173796483 [Eh]
	 SCS Correlation Energy    =      -0.1487724806487152 [Eh]
	 SCS Total Energy          =     -75.9862567013414321 [Eh]
	-----------------------------------------------------------

  -Total Gradient:
     Atom            X                  Y                   Z
    ------   -----------------  -----------------  -----------------
       1       -0.020188998030    -0.038305392283     0.000000000000
       2        0.046229623524    -0.079444845048    -0.000000000000
       3       -0.026040625493     0.117750237331    -0.000000000000

*** Psi4 exiting successfully. Buy a developer a beer!
