                               Psi4 1.2a1.dev429

  ==> Input File <==

--------------------------------------------------------------------------
# density-fitted hartree fock energies and gradients with 6-31g
molecule h2o {
0 1
O 0.0000000000 0.0000000000 0.0000000000
H 0.0000000000 0.0000000000 0.9000000000
H 0.0000000000 1.1258330249 -0.6500000000
}

set basis 6-31g

gradient('mp2')
--------------------------------------------------------------------------

    Molecular point group: cs
  Charge       = 0
  Multiplicity = 1
  Basis Set: 6-31G
    Blend: 6-31G
  Basis Set: (6-31G AUX)
    Blend: CC-PVDZ-JKFIT

    Orbital Energies (a.u.)
    -----------------------

    Doubly Occupied:

       1Ap   -20.566956     2Ap    -1.307873     3Ap    -0.665647
       4Ap    -0.502505     1App   -0.487674

  @DF-RHF Final Energy:   -75.91274329723018

   => Energetics <=

    Nuclear Repulsion Energy =              8.2365007939132102
    One-Electron Energy =                -121.2371804202240924
    Two-Electron Energy =                  37.0879363290806978
    Total Energy =                        -75.9127432972301790
  Basis Set: (6-31G AUX)
    Blend: CC-PVDZ-RI
    Molecular point group: cs

    Geometry (in Angstrom), charge = 0, multiplicity = 1:

       Center              X                  Y                   Z               Mass
    ------------   -----------------  -----------------  -----------------  -----------------
           O          0.062998730154     0.013989359159     0.000000000000    15.994914619560
           H          0.062998730154    -0.886010640841     0.000000000000     1.007825032070
           H         -1.062834294746     0.663989359159     0.000000000000     1.007825032070

  Basis Set: 6-31G
    Blend: 6-31G
  Basis Set: (6-31G AUX)
    Blend: CC-PVDZ-JKFIT
  Basis Set: (6-31G AUX)
    Blend: CC-PVDZ-JKFIT
	 Reference Energy          =     -75.9127432972301790 [Eh]
	 Singles Energy            =      -0.0000000000000000 [Eh]
	 Same-Spin Energy          =      -0.0322615240440483 [Eh]
	 Opposite-Spin Energy      =      -0.1072875803285062 [Eh]
	 Correlation Energy        =      -0.1395491043725545 [Eh]
	 Total Energy              =     -76.0522924016027275 [Eh]

	 ================> DF-SCS-MP2 Energies <==================
	-----------------------------------------------------------
	 SCS Same-Spin Scale       =       0.3333333333333333 [-]
	 SCS Opposite-Spin Scale   =       1.2000000000000000 [-]
	 SCS Same-Spin Energy      =      -0.0107538413480161 [Eh]
	 SCS Opposite-Spin Energy  =      -0.1287450963942075 [Eh]
	 SCS Correlation Energy    =      -0.1394989377422236 [Eh]
	 SCS Total Energy          =     -76.0522422349723968 [Eh]
	-----------------------------------------------------------

  -Total Gradient:
     Atom            X                  Y                   Z
    ------   -----------------  -----------------  -----------------
       1        0.066403264368    -0.171822280516     0.000000000000
       2        0.026514776379     0.096979899001    -0.000000000000
       3       -0.092918040747     0.074842381515    -0.000000000000

*** Psi4 exiting successfully. Buy a developer a beer!
