                               Psi4 1.2.1 release

  ==> Input File <==

--------------------------------------------------------------------------
# density fitted hartree fock
molecule h2o {
0 1
H 0.0000000000 0.0000000000 0.9375000000
H 0.0000000000 0.8661370617 -0.3587657178
O 0.0000000000 0.0000000000 0.0000000000
}

set basis 6-31g
energy('hf')

--------------------------------------------------------------------------

    Molecular point group: c2v

    Geometry (in Angstrom), charge = 0, multiplicity = 1:

       Center              X                  Y                   Z               Mass
    ------------   -----------------  -----------------  -----------------  -----------------
         H            0.000000000000    -0.779502761508     0.462556556997     1.007825032070
         H           -0.000000000000     0.779502761508     0.462556556997     1.007825032070
         O            0.000000000000     0.000000000000    -0.058290536458    15.994914619560

  Charge       = 0
  Multiplicity = 1
  Basis Set: 6-31G
    Blend: 6-31G
  Basis Set: (6-31G AUX)
    Blend: CC-PVDZ-JKFIT

    Orbital Energies [Eh]
    ---------------------

    Doubly Occupied:

       1A1   -20.550434     2A1    -1.358050     1B2    -0.735253
       3A1    -0.548203     1B1    -0.498644

  @DF-RHF Final Energy:   -75.98503321745727

   => Energetics <=

    Nuclear Repulsion Energy =              9.3707235694016759
    One-Electron Energy =                -123.3303498544471353
    Two-Electron Energy =                  37.9745930675881880
    Total Energy =                        -75.9850332174572713

  Dipole Moment: [D]
     X:     0.0000      Y:     0.0000      Z:     2.4769     Total:     2.4769

*** Psi4 exiting successfully. Buy a developer a beer!
