                               Psi4 1.2a1.dev429

  ==> Input File <==

--------------------------------------------------------------------------
# density-fitted hartree fock energies and gradients with 6-31g
molecule h2o {
0 1
O 0.0000000000 0.0000000000 0.0000000000
H 0.0000000000 0.0000000000 0.8000000000
H 0.0000000000 0.9000000000 0.0000000000
}

set basis 6-31g

gradient('mp2')
--------------------------------------------------------------------------

    Molecular point group: cs
  Charge       = 0
  Multiplicity = 1
  Basis Set: 6-31G
    Blend: 6-31G
  Basis Set: (6-31G AUX)
    Blend: CC-PVDZ-JKFIT

    Orbital Energies (a.u.)
    -----------------------

    Doubly Occupied:

       1Ap   -20.547200     2Ap    -1.448160     3Ap    -0.739094
       4Ap    -0.604845     1App   -0.514460

  @DF-RHF Final Energy:   -75.92767640342880

   => Energetics <=

    Nuclear Repulsion Energy =             10.4350272477390806
    One-Electron Energy =                -125.0178887505499006
    Two-Electron Energy =                  38.6551850993820096
    Total Energy =                        -75.9276764034288050
  Basis Set: (6-31G AUX)
    Blend: CC-PVDZ-RI
    Molecular point group: cs

    Geometry (in Angstrom), charge = 0, multiplicity = 1:

       Center              X                  Y                   Z               Mass
    ------------   -----------------  -----------------  -----------------  -----------------
           O          0.050361692973     0.044765949309     0.000000000000    15.994914619560
           H          0.050361692973    -0.755234050691     0.000000000000     1.007825032070
           H         -0.849638307027     0.044765949309     0.000000000000     1.007825032070

  Basis Set: 6-31G
    Blend: 6-31G
  Basis Set: (6-31G AUX)
    Blend: CC-PVDZ-JKFIT
  Basis Set: (6-31G AUX)
    Blend: CC-PVDZ-JKFIT
	 Reference Energy          =     -75.9276764034288050 [Eh]
	 Singles Energy            =      -0.0000000000000000 [Eh]
	 Same-Spin Energy          =      -0.0276755454094300 [Eh]
	 Opposite-Spin Energy      =      -0.0919513035139915 [Eh]
	 Correlation Energy        =      -0.1196268489234215 [Eh]
	 Total Energy              =     -76.0473032523522221 [Eh]

	 ================> DF-SCS-MP2 Energies <==================
	-----------------------------------------------------------
	 SCS Same-Spin Scale       =       0.3333333333333333 [-]
	 SCS Opposite-Spin Scale   =       1.2000000000000000 [-]
	 SCS Same-Spin Energy      =      -0.0092251818031433 [Eh]
	 SCS Opposite-Spin Energy  =      -0.1103415642167898 [Eh]
	 SCS Correlation Energy    =      -0.1195667460199332 [Eh]
	 SCS Total Energy          =     -76.0472431494487324 [Eh]
	-----------------------------------------------------------

  -Total Gradient:
     Atom            X                  Y                   Z
    ------   -----------------  -----------------  -----------------
       1       -0.047547948746    -0.279538009206     0.000000000000
       2       -0.061360494716     0.334080672712    -0.000000000000
       3        0.108908443462    -0.054542663506     0.000000000000

*** Psi4 exiting successfully. Buy a developer a beer!
