                               Psi4 1.2a1.dev429

  ==> Input File <==

--------------------------------------------------------------------------
# density-fitted hartree fock energies and gradients with 6-31g
molecule h2o {
0 1
O 0.0000000000 0.0000000000 0.0000000000
H 0.0000000000 0.0000000000 1.0000000000
H 0.0000000000 0.4500000000 -0.7794228634
}

set basis 6-31g

gradient('mp2')
--------------------------------------------------------------------------

    Molecular point group: cs
  Charge       = 0
  Multiplicity = 1
  Basis Set: 6-31G
    Blend: 6-31G
  Basis Set: (6-31G AUX)
    Blend: CC-PVDZ-JKFIT

    Orbital Energies (a.u.)
    -----------------------

    Doubly Occupied:

       1Ap   -20.518674     2Ap    -1.314563     3Ap    -0.764973
       4Ap    -0.485361     1App   -0.476523

  @DF-RHF Final Energy:   -75.95395371961150

   => Energetics <=

    Nuclear Repulsion Energy =              9.2255256515443413
    One-Electron Energy =                -123.2387704121321406
    Two-Electron Energy =                  38.0592910409762837
    Total Energy =                        -75.9539537196115191
  Basis Set: (6-31G AUX)
    Blend: CC-PVDZ-RI
    Molecular point group: cs

    Geometry (in Angstrom), charge = 0, multiplicity = 1:

       Center              X                  Y                   Z               Mass
    ------------   -----------------  -----------------  -----------------  -----------------
           O          0.025180846486     0.012342931145     0.000000000000    15.994914619560
           H          0.025180846486    -0.987657068855     0.000000000000     1.007825032070
           H         -0.424819153514     0.791765794545     0.000000000000     1.007825032070

  Basis Set: 6-31G
    Blend: 6-31G
  Basis Set: (6-31G AUX)
    Blend: CC-PVDZ-JKFIT
  Basis Set: (6-31G AUX)
    Blend: CC-PVDZ-JKFIT
	 Reference Energy          =     -75.9539537196115049 [Eh]
	 Singles Energy            =      -0.0000000000000000 [Eh]
	 Same-Spin Energy          =      -0.0303568514279726 [Eh]
	 Opposite-Spin Energy      =      -0.0956629518622444 [Eh]
	 Correlation Energy        =      -0.1260198032902170 [Eh]
	 Total Energy              =     -76.0799735229017244 [Eh]

	 ================> DF-SCS-MP2 Energies <==================
	-----------------------------------------------------------
	 SCS Same-Spin Scale       =       0.3333333333333333 [-]
	 SCS Opposite-Spin Scale   =       1.2000000000000000 [-]
	 SCS Same-Spin Energy      =      -0.0101189504759909 [Eh]
	 SCS Opposite-Spin Energy  =      -0.1147955422346933 [Eh]
	 SCS Correlation Energy    =      -0.1249144927106841 [Eh]
	 SCS Total Energy          =     -76.0788682123221918 [Eh]
	-----------------------------------------------------------

  -Total Gradient:
     Atom            X                  Y                   Z
    ------   -----------------  -----------------  -----------------
       1       -0.092918502251     0.094084038317     0.000000000000
       2        0.030099204780    -0.052164946123     0.000000000000
       3        0.062819297471    -0.041919092194    -0.000000000000

*** Psi4 exiting successfully. Buy a developer a beer!
