                               Psi4 1.3.1 release

  ==> Input File <==

--------------------------------------------------------------------------
# density fitted hartree fock
molecule h2o {
0 1
H 0.0000000000 0.0000000000 1.2000000000
H 0.0000000000 0.9774174361 -0.3836080756
O 0.0000000000 0.0000000000 0.0000000000
}

set basis 6-31g
energy('hf')

--------------------------------------------------------------------------

    Molecular point group: cs

    Geometry (in Angstrom), charge = 0, multiplicity = 1:

       Center              X                  Y                   Z               Mass
    ------------   -----------------  -----------------  -----------------  -----------------
         H            0.054693774255    -1.154316800614     0.000000000000     1.007825032230
         H           -0.922723661845     0.429291274986     0.000000000000     1.007825032230
         O            0.054693774255     0.045683199386     0.000000000000    15.994914619570

  Charge       = 0
  Multiplicity = 1
  Basis Set: 6-31G
    Blend: 6-31G
  Basis Set: (6-31G AUX)
    Blend: CC-PVDZ-JKFIT

    Orbital Energies [Eh]
    ---------------------

    Doubly Occupied:

       1Ap   -20.585250     2Ap    -1.282304     3Ap    -0.637088
       4Ap    -0.521130     1App   -0.491665

  @DF-RHF Final Energy:   -75.93825052883609

   => Energetics <=

    Nuclear Repulsion Energy =              7.8440320728195827
    One-Electron Energy =                -120.5296763694763058
    Two-Electron Energy =                  36.7473937678206255
    Total Energy =                        -75.9382505288360932

  Dipole Moment: [D]
     X:    -2.0616      Y:    -1.4622      Z:     0.0000     Total:     2.5275

*** Psi4 exiting successfully. Buy a developer a beer!
