                               Psi4 1.2.1 release

  ==> Input File <==

--------------------------------------------------------------------------
# density fitted hartree fock
molecule h2o {
0 1
H 0.0000000000 0.0000000000 0.9375000000
H 0.0000000000 0.9375000000 0.0000000000
O 0.0000000000 0.0000000000 0.0000000000
}

set basis 6-31g
energy('hf')

--------------------------------------------------------------------------

    Molecular point group: c2v

    Geometry (in Angstrom), charge = 0, multiplicity = 1:

       Center              X                  Y                   Z               Mass
    ------------   -----------------  -----------------  -----------------  -----------------
         H            0.000000000000    -0.662912607362     0.588722826919     1.007825032070
         H           -0.000000000000     0.662912607362     0.588722826919     1.007825032070
         O           -0.000000000000     0.000000000000    -0.074189780444    15.994914619560

  Charge       = 0
  Multiplicity = 1
  Basis Set: 6-31G
    Blend: 6-31G
  Basis Set: (6-31G AUX)
    Blend: CC-PVDZ-JKFIT

    Orbital Energies [Eh]
    ---------------------

    Doubly Occupied:

       1A1   -20.565869     2A1    -1.385327     1B2    -0.691592
       3A1    -0.592462     1B1    -0.508946

  @DF-RHF Final Energy:   -75.97019871478187

   => Energetics <=

    Nuclear Repulsion Energy =              9.4304214720889128
    One-Electron Energy =                -123.3128437513316840
    Two-Electron Energy =                  37.9122235644608949
    Total Energy =                        -75.9701987147818727

  Dipole Moment: [D]
     X:    -0.0000      Y:     0.0000      Z:     2.8444     Total:     2.8444

*** Psi4 exiting successfully. Buy a developer a beer!
