                               Psi4 1.3.1 release

  ==> Input File <==

--------------------------------------------------------------------------
# density fitted MP2
molecule h2o {
0 1
H 0.0000000000 0.0000000000 1.2000000000
H 0.0000000000 0.7361215932 -0.4250000000
O 0.0000000000 0.0000000000 0.0000000000
}

set basis 6-31g
energy('mp2')

--------------------------------------------------------------------------

    Molecular point group: cs

    Geometry (in Angstrom), charge = 0, multiplicity = 1:

       Center              X                  Y                   Z               Mass
    ------------   -----------------  -----------------  -----------------  -----------------
         H            0.041191477414    -1.156632986601     0.000000000000     1.007825032230
         H           -0.694930115786     0.468367013399     0.000000000000     1.007825032230
         O            0.041191477414     0.043367013399     0.000000000000    15.994914619570

  Charge       = 0
  Multiplicity = 1
  Basis Set: 6-31G
    Blend: 6-31G
  Basis Set: (6-31G AUX)
    Blend: CC-PVDZ-JKFIT

    Orbital Energies [Eh]
    ---------------------

    Doubly Occupied:

       1Ap   -20.555695     2Ap    -1.334982     3Ap    -0.699029
       4Ap    -0.516216     1App   -0.490594

  @DF-RHF Final Energy:   -75.92810023702570

   => Energetics <=

    Nuclear Repulsion Energy =              8.8049707326515776
    One-Electron Energy =                -122.2731096971739788
    Two-Electron Energy =                  37.5400387274966860
    Total Energy =                        -75.9281002370257170

  Dipole Moment: [D]
     X:    -1.8902      Y:    -1.4325      Z:     0.0000     Total:     2.3717

  Basis Set: (6-31G AUX)
    Blend: CC-PVDZ-RI
	 Reference Energy          =     -75.9281002370257028 [Eh]
	 Singles Energy            =      -0.0000000000000000 [Eh]
	 Same-Spin Energy          =      -0.0310664436747924 [Eh]
	 Opposite-Spin Energy      =      -0.1019368767354868 [Eh]
	 Correlation Energy        =      -0.1330033204102792 [Eh]
	 Total Energy              =     -76.0611035574359846 [Eh]

	 ================> DF-SCS-MP2 Energies <==================
	-----------------------------------------------------------
	 SCS Same-Spin Scale       =       0.3333333333333333 [-]
	 SCS Opposite-Spin Scale   =       1.2000000000000000 [-]
	 SCS Same-Spin Energy      =      -0.0103554812249308 [Eh]
	 SCS Opposite-Spin Energy  =      -0.1223242520825841 [Eh]
	 SCS Correlation Energy    =      -0.1326797333075149 [Eh]
	 SCS Total Energy          =     -76.0607799703332148 [Eh]
	-----------------------------------------------------------

*** Psi4 exiting successfully. Buy a developer a beer!
