                               Psi4 1.2a1.dev429

  ==> Input File <==

--------------------------------------------------------------------------
# density-fitted hartree fock energies and gradients with 6-31g
molecule h20 {
0 1
O 0.0000000000 0.0000000000 0.0000000000
H 0.0000000000 0.0000000000 0.7000000000
H 0.0000000000 1.2216004070 -0.4446261863
}

set basis 6-31g

gradient('hf')
--------------------------------------------------------------------------

    Molecular point group: cs
  Charge       = 0
  Multiplicity = 1
  Basis Set: 6-31G
    Blend: 6-31G
  Basis Set: (6-31G AUX)
    Blend: CC-PVDZ-JKFIT

    Orbital Energies (a.u.)
    -----------------------

    Doubly Occupied:

       1Ap   -20.557234     2Ap    -1.415250     3Ap    -0.711394
       4Ap    -0.526039     1App   -0.502873

  @DF-RHF Final Energy:   -75.79072615920040

   => Energetics <=

    Nuclear Repulsion Energy =              9.6203187565890698
    One-Electron Energy =                -123.3965094365079977
    Two-Electron Energy =                  37.9854645207185229
    Total Energy =                        -75.7907261592004033
    Molecular point group: cs

    Geometry (in Angstrom), charge = 0, multiplicity = 1:

       Center              X                  Y                   Z               Mass
    ------------   -----------------  -----------------  -----------------  -----------------
           O          0.068357627369     0.014290063999     0.000000000000    15.994914619560
           H          0.068357627369    -0.685709936001     0.000000000000     1.007825032070
           H         -1.153242779631     0.458916250299     0.000000000000     1.007825032070

  Basis Set: 6-31G
    Blend: 6-31G
  Basis Set: (6-31G AUX)
    Blend: CC-PVDZ-JKFIT

  -Total Gradient:
     Atom            X                  Y                   Z
    ------   -----------------  -----------------  -----------------
       1        0.122016398604    -0.797207406359     0.000000000000
       2        0.007739441371     0.745545296008     0.000000000000
       3       -0.129755839975     0.051662110350     0.000000000000

*** Psi4 exiting successfully. Buy a developer a beer!
