                               Psi4 1.2a1.dev429

  ==> Input File <==

--------------------------------------------------------------------------
# density-fitted hartree fock energies and gradients with 6-31g
molecule h2o {
0 1
O 0.0000000000 0.0000000000 0.0000000000
H 0.0000000000 0.0000000000 0.9000000000
H 0.0000000000 0.4500000000 -0.7794228634
}

set basis 6-31g

gradient('mp2')
--------------------------------------------------------------------------

    Molecular point group: c2v
  Charge       = 0
  Multiplicity = 1
  Basis Set: 6-31G
    Blend: 6-31G
  Basis Set: (6-31G AUX)
    Blend: CC-PVDZ-JKFIT

    Orbital Energies (a.u.)
    -----------------------

    Doubly Occupied:

       1A1   -20.514315     2A1    -1.339626     1B2    -0.803229
       3A1    -0.494205     1B1    -0.484026

  @DF-RHF Final Energy:   -75.95791984121863

   => Energetics <=

    Nuclear Repulsion Energy =              9.7119529078887723
    One-Electron Energy =                -124.0689438609524871
    Two-Electron Energy =                  38.3990711118450889
    Total Energy =                        -75.9579198412186258
  Basis Set: (6-31G AUX)
    Blend: CC-PVDZ-RI
    Molecular point group: c2v

    Geometry (in Angstrom), charge = 0, multiplicity = 1:

       Center              X                  Y                   Z               Mass
    ------------   -----------------  -----------------  -----------------  -----------------
           O         -0.000000000000     0.000000000000    -0.026069130570    15.994914619560
           H          0.000000000000    -0.869333243657     0.206868010023     1.007825032070
           H         -0.000000000000     0.869333243657     0.206868010023     1.007825032070

  Basis Set: 6-31G
    Blend: 6-31G
  Basis Set: (6-31G AUX)
    Blend: CC-PVDZ-JKFIT
  Basis Set: (6-31G AUX)
    Blend: CC-PVDZ-JKFIT
	 Reference Energy          =     -75.9579198412186258 [Eh]
	 Singles Energy            =      -0.0000000000000000 [Eh]
	 Same-Spin Energy          =      -0.0294903948214388 [Eh]
	 Opposite-Spin Energy      =      -0.0928390302776657 [Eh]
	 Correlation Energy        =      -0.1223294250991045 [Eh]
	 Total Energy              =     -76.0802492663177361 [Eh]

	 ================> DF-SCS-MP2 Energies <==================
	-----------------------------------------------------------
	 SCS Same-Spin Scale       =       0.3333333333333333 [-]
	 SCS Opposite-Spin Scale   =       1.2000000000000000 [-]
	 SCS Same-Spin Energy      =      -0.0098301316071463 [Eh]
	 SCS Opposite-Spin Energy  =      -0.1114068363331988 [Eh]
	 SCS Correlation Energy    =      -0.1212369679403451 [Eh]
	 SCS Total Energy          =     -76.0791568091589738 [Eh]
	-----------------------------------------------------------

  -Total Gradient:
     Atom            X                  Y                   Z
    ------   -----------------  -----------------  -----------------
       1       -0.000000000000    -0.000000000032     0.090101679955
       2        0.000000000000     0.052795314451    -0.045050839980
       3        0.000000000000    -0.052795314420    -0.045050839975

*** Psi4 exiting successfully. Buy a developer a beer!
