                               Psi4 1.2a1.dev429

  ==> Input File <==

--------------------------------------------------------------------------
# density-fitted hartree fock energies and gradients with 6-31g
molecule h20 {
0 1
O 0.0000000000 0.0000000000 0.0000000000
H 0.0000000000 0.0000000000 1.1000000000
H 0.0000000000 1.3787308542 -0.2431074487
}

set basis 6-31g

gradient('hf')
--------------------------------------------------------------------------

    Molecular point group: cs
  Charge       = 0
  Multiplicity = 1
  Basis Set: 6-31G
    Blend: 6-31G
  Basis Set: (6-31G AUX)
    Blend: CC-PVDZ-JKFIT

    Orbital Energies (a.u.)
    -----------------------

    Doubly Occupied:

       1Ap   -20.614830     2Ap    -1.265410     3Ap    -0.593523
       4Ap    -0.508918     1App   -0.499692

  @DF-RHF Final Energy:   -75.88300637958811

   => Energetics <=

    Nuclear Repulsion Energy =              7.1473577874656682
    One-Electron Energy =                -119.0959814448994081
    Two-Electron Energy =                  36.0656172778456394
    Total Energy =                        -75.8830063795880960
    Molecular point group: cs

    Geometry (in Angstrom), charge = 0, multiplicity = 1:

       Center              X                  Y                   Z               Mass
    ------------   -----------------  -----------------  -----------------  -----------------
           O          0.077150244412     0.047949510643     0.000000000000    15.994914619560
           H          0.077150244412    -1.052050489357     0.000000000000     1.007825032070
           H         -1.301580609788     0.291056959343     0.000000000000     1.007825032070

  Basis Set: 6-31G
    Blend: 6-31G
  Basis Set: (6-31G AUX)
    Blend: CC-PVDZ-JKFIT

  -Total Gradient:
     Atom            X                  Y                   Z
    ------   -----------------  -----------------  -----------------
       1        0.128118749966     0.070672659725     0.000000000000
       2       -0.000078532924    -0.093186948914     0.000000000000
       3       -0.128040217042     0.022514289190     0.000000000000

*** Psi4 exiting successfully. Buy a developer a beer!
