                               Psi4 1.2a1.dev429

  ==> Input File <==

--------------------------------------------------------------------------
# density-fitted MP2 energies and gradients with 6-31g

molecule h20 {
-1 1
C 0.0000000000 0.0000000000 0.0000000000
X 0.0000000000 0.0000000000 1.0000000000
H 0.0000000000 0.7257072113 0.8648641763
H 0.6284808807 -0.3628536057 0.8648641763
H -0.6284808807 -0.3628536057 0.8648641763
}

set reference rhf
set basis 6-31g

gradient('mp2')
--------------------------------------------------------------------------

    Molecular point group: cs
  Charge       = -1
  Multiplicity = 1
  Basis Set: 6-31G
    Blend: 6-31G
  Basis Set: (6-31G AUX)
    Blend: CC-PVDZ-JKFIT

    Orbital Energies (a.u.)
    -----------------------

    Doubly Occupied:

       1Ap   -10.899974     2Ap    -0.675930     1App   -0.134073
       3Ap    -0.134073     4Ap    -0.080846

  @DF-RHF Final Energy:   -39.35057661769637

   => Energetics <=

    Nuclear Repulsion Energy =              9.6998288782473203
    One-Electron Energy =                 -74.2510219443279880
    Two-Electron Energy =                  25.2006164483843023
    Total Energy =                        -39.3505766176963689
  Basis Set: (6-31G AUX)
    Blend: CC-PVDZ-RI
    Molecular point group: cs

    Geometry (in Angstrom), charge = -1, multiplicity = 1:

       Center              X                  Y                   Z               Mass
    ------------   -----------------  -----------------  -----------------  -----------------
           C         -0.000000000003    -0.174053957683     0.000000000000    12.000000000000
           H         -0.362853605643     0.690810218617     0.628480880718     1.007825032070
           H         -0.362853605643     0.690810218617    -0.628480880718     1.007825032070
           H          0.725707211326     0.690810218617     0.000000000000     1.007825032070

  Basis Set: 6-31G
    Blend: 6-31G
  Basis Set: (6-31G AUX)
    Blend: CC-PVDZ-JKFIT
  Basis Set: (6-31G AUX)
    Blend: CC-PVDZ-JKFIT
	 Reference Energy          =     -39.3505766176963689 [Eh]
	 Singles Energy            =      -0.0000000000000000 [Eh]
	 Same-Spin Energy          =      -0.0198525696992671 [Eh]
	 Opposite-Spin Energy      =      -0.0890576851347919 [Eh]
	 Correlation Energy        =      -0.1089102548340590 [Eh]
	 Total Energy              =     -39.4594868725304266 [Eh]

	 ================> DF-SCS-MP2 Energies <==================
	-----------------------------------------------------------
	 SCS Same-Spin Scale       =       0.3333333333333333 [-]
	 SCS Opposite-Spin Scale   =       1.2000000000000000 [-]
	 SCS Same-Spin Energy      =      -0.0066175232330890 [Eh]
	 SCS Opposite-Spin Energy  =      -0.1068692221617503 [Eh]
	 SCS Correlation Energy    =      -0.1134867453948393 [Eh]
	 SCS Total Energy          =     -39.4640633630912063 [Eh]
	-----------------------------------------------------------

  -Total Gradient:
     Atom            X                  Y                   Z
    ------   -----------------  -----------------  -----------------
       1       -0.000000000048    -0.026824351939     0.000000000016
       2        0.042312786326     0.008941450632    -0.073287895719
       3        0.042312786323     0.008941450641     0.073287895707
       4       -0.084625572601     0.008941450666    -0.000000000005

*** Psi4 exiting successfully. Buy a developer a beer!
