                               Psi4 1.2a1.dev429

  ==> Input File <==

--------------------------------------------------------------------------
# density-fitted hartree fock energies and gradients with 6-31g
molecule h20 {
0 1
O 0.0000000000 0.0000000000 0.0000000000
H 0.0000000000 0.0000000000 0.8000000000
H 0.0000000000 0.7794228634 -0.4500000000
}

set basis 6-31g

gradient('hf')
--------------------------------------------------------------------------

    Molecular point group: cs
  Charge       = 0
  Multiplicity = 1
  Basis Set: 6-31G
    Blend: 6-31G
  Basis Set: (6-31G AUX)
    Blend: CC-PVDZ-JKFIT

    Orbital Energies (a.u.)
    -----------------------

    Doubly Occupied:

       1Ap   -20.529219     2Ap    -1.405737     3Ap    -0.805867
       4Ap    -0.547312     1App   -0.503506

  @DF-RHF Final Energy:   -75.94851515877757

   => Energetics <=

    Nuclear Repulsion Energy =             10.3547983920630369
    One-Electron Energy =                -125.0233436525192303
    Two-Electron Energy =                  38.7200301016786383
    Total Energy =                        -75.9485151587775533
    Molecular point group: cs

    Geometry (in Angstrom), charge = 0, multiplicity = 1:

       Center              X                  Y                   Z               Mass
    ------------   -----------------  -----------------  -----------------  -----------------
           O          0.043614505491     0.019585102823     0.000000000000    15.994914619560
           H          0.043614505491    -0.780414897177     0.000000000000     1.007825032070
           H         -0.735808357909     0.469585102823     0.000000000000     1.007825032070

  Basis Set: 6-31G
    Blend: 6-31G
  Basis Set: (6-31G AUX)
    Blend: CC-PVDZ-JKFIT

  -Total Gradient:
     Atom            X                  Y                   Z
    ------   -----------------  -----------------  -----------------
       1       -0.058133935841    -0.262746095926     0.000000000000
       2        0.006225817817     0.286325079398     0.000000000000
       3        0.051908118024    -0.023578983473     0.000000000000

*** Psi4 exiting successfully. Buy a developer a beer!
