                               Psi4 1.2a1.dev429

  ==> Input File <==

--------------------------------------------------------------------------
# density-fitted hartree fock energies and gradients with 6-31g
molecule h20 {
0 1
O 0.0000000000 0.0000000000 0.0000000000
H 0.0000000000 0.0000000000 0.8000000000
H 0.0000000000 0.0000000000 -1.3000000000
}

set basis 6-31g

gradient('hf')
--------------------------------------------------------------------------

    Molecular point group: c2v
  Charge       = 0
  Multiplicity = 1
  Basis Set: 6-31G
    Blend: 6-31G
  Basis Set: (6-31G AUX)
    Blend: CC-PVDZ-JKFIT

    Orbital Energies (a.u.)
    -----------------------

    Doubly Occupied:

       1A1   -20.489380     2A1    -1.289032     3A1    -0.693810
       1B2    -0.444897     1B1    -0.444897

  @DF-RHF Final Energy:   -75.82774314736454

   => Energetics <=

    Nuclear Repulsion Energy =              8.8002363626322335
    One-Electron Energy =                -122.5319251847920867
    Two-Electron Energy =                  37.9039456747953096
    Total Energy =                        -75.8277431473645436
    Molecular point group: c2v

    Geometry (in Angstrom), charge = 0, multiplicity = 1:

       Center              X                  Y                   Z               Mass
    ------------   -----------------  -----------------  -----------------  -----------------
           O          0.000000000000     0.000000000000     0.027978718318    15.994914619560
           H          0.000000000000     0.000000000000     0.827978718318     1.007825032070
           H          0.000000000000     0.000000000000    -1.272021281682     1.007825032070

  Basis Set: 6-31G
    Blend: 6-31G
  Basis Set: (6-31G AUX)
    Blend: CC-PVDZ-JKFIT

  -Total Gradient:
     Atom            X                  Y                   Z
    ------   -----------------  -----------------  -----------------
       1       -0.000000000000    -0.000000000000     0.453873416622
       2        0.000000000000     0.000000000000    -0.283168492704
       3        0.000000000000     0.000000000000    -0.170704923917

*** Psi4 exiting successfully. Buy a developer a beer!
