                               Psi4 1.2a1.dev429

  ==> Input File <==

--------------------------------------------------------------------------
# density-fitted hartree fock energies and gradients with 6-31g
molecule h2o {
0 1
O 0.0000000000 0.0000000000 0.0000000000
H 0.0000000000 0.0000000000 1.0000000000
H 0.0000000000 1.4095389312 -0.5130302150
}

set basis 6-31g

gradient('mp2')
--------------------------------------------------------------------------

    Molecular point group: cs
  Charge       = 0
  Multiplicity = 1
  Basis Set: 6-31G
    Blend: 6-31G
  Basis Set: (6-31G AUX)
    Blend: CC-PVDZ-JKFIT

    Orbital Energies (a.u.)
    -----------------------

    Doubly Occupied:

       1Ap   -20.599972     2Ap    -1.276522     3Ap    -0.615703
       1App   -0.494284     4Ap    -0.484592

  @DF-RHF Final Energy:   -75.86910605956557

   => Energetics <=

    Nuclear Repulsion Energy =              7.3116013752724678
    One-Electron Energy =                -119.4192701205284806
    Two-Electron Energy =                  36.2385626856904395
    Total Energy =                        -75.8691060595655671
  Basis Set: (6-31G AUX)
    Blend: CC-PVDZ-RI
    Molecular point group: cs

    Geometry (in Angstrom), charge = 0, multiplicity = 1:

       Center              X                  Y                   Z               Mass
    ------------   -----------------  -----------------  -----------------  -----------------
           O          0.078874185429     0.027249580888     0.000000000000    15.994914619560
           H          0.078874185429    -0.972750419112     0.000000000000     1.007825032070
           H         -1.330664745771     0.540279795888     0.000000000000     1.007825032070

  Basis Set: 6-31G
    Blend: 6-31G
  Basis Set: (6-31G AUX)
    Blend: CC-PVDZ-JKFIT
  Basis Set: (6-31G AUX)
    Blend: CC-PVDZ-JKFIT
	 Reference Energy          =     -75.8691060595655671 [Eh]
	 Singles Energy            =      -0.0000000000000000 [Eh]
	 Same-Spin Energy          =      -0.0346825759444983 [Eh]
	 Opposite-Spin Energy      =      -0.1202712357807819 [Eh]
	 Correlation Energy        =      -0.1549538117252802 [Eh]
	 Total Energy              =     -76.0240598712908451 [Eh]

	 ================> DF-SCS-MP2 Energies <==================
	-----------------------------------------------------------
	 SCS Same-Spin Scale       =       0.3333333333333333 [-]
	 SCS Opposite-Spin Scale   =       1.2000000000000000 [-]
	 SCS Same-Spin Energy      =      -0.0115608586481661 [Eh]
	 SCS Opposite-Spin Energy  =      -0.1443254829369383 [Eh]
	 SCS Correlation Energy    =      -0.1558863415851044 [Eh]
	 SCS Total Energy          =     -76.0249924011506693 [Eh]
	-----------------------------------------------------------

  -Total Gradient:
     Atom            X                  Y                   Z
    ------   -----------------  -----------------  -----------------
       1        0.076352005088    -0.038040669680     0.000000000000
       2        0.017442692252    -0.008472557854    -0.000000000000
       3       -0.093794697339     0.046513227535     0.000000000000

*** Psi4 exiting successfully. Buy a developer a beer!
