                               Psi4 1.2a1.dev429

  ==> Input File <==

--------------------------------------------------------------------------
# density-fitted hartree fock energies and gradients with 6-31g
molecule h2o {
0 1
O 0.0000000000 0.0000000000 0.0000000000
H 0.0000000000 0.0000000000 1.0000000000
H 0.0000000000 1.3155696691 -0.4788282007
}

set basis 6-31g

gradient('mp2')
--------------------------------------------------------------------------

    Molecular point group: cs
  Charge       = 0
  Multiplicity = 1
  Basis Set: 6-31G
    Blend: 6-31G
  Basis Set: (6-31G AUX)
    Blend: CC-PVDZ-JKFIT

    Orbital Energies (a.u.)
    -----------------------

    Doubly Occupied:

       1Ap   -20.594789     2Ap    -1.280343     3Ap    -0.622545
       4Ap    -0.499774     1App   -0.493520

  @DF-RHF Final Energy:   -75.89416746687968

   => Energetics <=

    Nuclear Repulsion Energy =              7.5246422158307018
    One-Electron Energy =                -119.8556775438319448
    Two-Electron Energy =                  36.4368678611215699
    Total Energy =                        -75.8941674668796793
  Basis Set: (6-31G AUX)
    Blend: CC-PVDZ-RI
    Molecular point group: cs

    Geometry (in Angstrom), charge = 0, multiplicity = 1:

       Center              X                  Y                   Z               Mass
    ------------   -----------------  -----------------  -----------------  -----------------
           O          0.073615906399     0.029163437936     0.000000000000    15.994914619560
           H          0.073615906399    -0.970836562064     0.000000000000     1.007825032070
           H         -1.241953762701     0.507991638636     0.000000000000     1.007825032070

  Basis Set: 6-31G
    Blend: 6-31G
  Basis Set: (6-31G AUX)
    Blend: CC-PVDZ-JKFIT
  Basis Set: (6-31G AUX)
    Blend: CC-PVDZ-JKFIT
	 Reference Energy          =     -75.8941674668796793 [Eh]
	 Singles Energy            =      -0.0000000000000000 [Eh]
	 Same-Spin Energy          =      -0.0340913092753664 [Eh]
	 Opposite-Spin Energy      =      -0.1160333792304475 [Eh]
	 Correlation Energy        =      -0.1501246885058139 [Eh]
	 Total Energy              =     -76.0442921553854916 [Eh]

	 ================> DF-SCS-MP2 Energies <==================
	-----------------------------------------------------------
	 SCS Same-Spin Scale       =       0.3333333333333333 [-]
	 SCS Opposite-Spin Scale   =       1.2000000000000000 [-]
	 SCS Same-Spin Energy      =      -0.0113637697584555 [Eh]
	 SCS Opposite-Spin Energy  =      -0.1392400550765370 [Eh]
	 SCS Correlation Energy    =      -0.1506038248349925 [Eh]
	 SCS Total Energy          =     -76.0447712917146674 [Eh]
	-----------------------------------------------------------

  -Total Gradient:
     Atom            X                  Y                   Z
    ------   -----------------  -----------------  -----------------
       1        0.083003480617    -0.037257306667    -0.000000000000
       2        0.016031758026    -0.010974739179     0.000000000000
       3       -0.099035238643     0.048232045847     0.000000000000

*** Psi4 exiting successfully. Buy a developer a beer!
