                               Psi4 1.2a1.dev429

  ==> Input File <==

--------------------------------------------------------------------------
# density-fitted hartree fock energies and gradients with 6-31g
molecule h20 {
0 1
O 0.0000000000 0.0000000000 0.0000000000
O 0.0000000000 0.0000000000 0.9343434343
}

set basis 6-31g

gradient('hf')
--------------------------------------------------------------------------

    Molecular point group: d2h
  Charge       = 0
  Multiplicity = 1
  Basis Set: 6-31G
    Blend: 6-31G
  Basis Set: (6-31G AUX)
    Blend: CC-PVDZ-JKFIT

    Orbital Energies (a.u.)
    -----------------------

    Doubly Occupied:

       1Ag   -20.719304     1B1u  -20.715050     2Ag    -2.038356
       2B1u   -0.997660     1B2u   -0.927860     1B3u   -0.831752
       3Ag    -0.806680     1B3g   -0.341352

  @DF-RHF Final Energy:  -149.23399431007169

   => Energetics <=

    Nuclear Repulsion Energy =             36.2472085814281400
    One-Electron Energy =                -276.2063761741495682
    Two-Electron Energy =                  90.7251732826497062
    Total Energy =                       -149.2339943100717221
    Molecular point group: d2h

    Geometry (in Angstrom), charge = 0, multiplicity = 1:

       Center              X                  Y                   Z               Mass
    ------------   -----------------  -----------------  -----------------  -----------------
           O          0.000000000000     0.000000000000    -0.467171717150    15.994914619560
           O          0.000000000000     0.000000000000     0.467171717150    15.994914619560

  Basis Set: 6-31G
    Blend: 6-31G
  Basis Set: (6-31G AUX)
    Blend: CC-PVDZ-JKFIT

  -Total Gradient:
     Atom            X                  Y                   Z
    ------   -----------------  -----------------  -----------------
       1       -0.000000000000     0.000000000000     1.285838280679
       2        0.000000000000     0.000000000000    -1.285838280679

*** Psi4 exiting successfully. Buy a developer a beer!
