                               Psi4 1.2a1.dev429

  ==> Input File <==

--------------------------------------------------------------------------
# density-fitted hartree fock energies and gradients with 6-31g
molecule o2 {
0 3
O 0.0000000000 0.0000000000 0.0000000000
O 0.0000000000 0.0000000000 1.0714285714
}

set basis 6-31g
set reference rohf

energy('scf')
--------------------------------------------------------------------------

    Molecular point group: d2h

    Geometry (in Angstrom), charge = 0, multiplicity = 3:

       Center              X                  Y                   Z               Mass
    ------------   -----------------  -----------------  -----------------  -----------------
           O          0.000000000000     0.000000000000    -0.535714285700    15.994914619560
           O          0.000000000000     0.000000000000     0.535714285700    15.994914619560

  Charge       = 0
  Multiplicity = 3
  Basis Set: 6-31G
    Blend: 6-31G
  Basis Set: (6-31G AUX)
    Blend: CC-PVDZ-JKFIT

    Orbital Energies (a.u.)
    -----------------------

    Doubly Occupied:

       1Ag   -20.723864     1B1u  -20.722234     2Ag    -1.841548
       2B1u   -1.047927     1B3u   -0.781075     1B2u   -0.781075
       3Ag    -0.762609

    Singly Occupied:

       1B2g   -0.164913     1B3g   -0.164913

  @DF-ROHF Final Energy:  -149.49584905802519

   => Energetics <=

    Nuclear Repulsion Energy =             31.6095185939522629
    One-Electron Energy =                -267.9023170322001874
    Two-Electron Energy =                  86.7969493802227561
    Total Energy =                       -149.4958490580251578
*** Psi4 exiting successfully. Buy a developer a beer!
