                               Psi4 1.2a1.dev429

  ==> Input File <==

--------------------------------------------------------------------------
# density-fitted hartree fock energies and gradients with 6-31g
molecule h2o {
0 1
O 0.0000000000 0.0000000000 0.0000000000
H 0.0000000000 0.0000000000 1.0000000000
H 0.0000000000 1.4772116295 -0.2604722665
}

set basis 6-31g

gradient('mp2')
--------------------------------------------------------------------------

    Molecular point group: cs
  Charge       = 0
  Multiplicity = 1
  Basis Set: 6-31G
    Blend: 6-31G
  Basis Set: (6-31G AUX)
    Blend: CC-PVDZ-JKFIT

    Orbital Energies (a.u.)
    -----------------------

    Doubly Occupied:

       1Ap   -20.609541     2Ap    -1.284719     3Ap    -0.615568
       1App   -0.501287     4Ap    -0.493621

  @DF-RHF Final Energy:   -75.87158040000918

   => Energetics <=

    Nuclear Repulsion Energy =              7.3282021082382007
    One-Electron Energy =                -119.3900932321832755
    Two-Electron Energy =                  36.1903107239358945
    Total Energy =                        -75.8715804000091794
  Basis Set: (6-31G AUX)
    Blend: CC-PVDZ-RI
    Molecular point group: cs

    Geometry (in Angstrom), charge = 0, multiplicity = 1:

       Center              X                  Y                   Z               Mass
    ------------   -----------------  -----------------  -----------------  -----------------
           O          0.082660976156     0.041382076288     0.000000000000    15.994914619560
           H          0.082660976156    -0.958617923712     0.000000000000     1.007825032070
           H         -1.394550653344     0.301854342788     0.000000000000     1.007825032070

  Basis Set: 6-31G
    Blend: 6-31G
  Basis Set: (6-31G AUX)
    Blend: CC-PVDZ-JKFIT
  Basis Set: (6-31G AUX)
    Blend: CC-PVDZ-JKFIT
	 Reference Energy          =     -75.8715804000091794 [Eh]
	 Singles Energy            =      -0.0000000000000000 [Eh]
	 Same-Spin Energy          =      -0.0348944217804135 [Eh]
	 Opposite-Spin Energy      =      -0.1213582772847075 [Eh]
	 Correlation Energy        =      -0.1562526990651210 [Eh]
	 Total Energy              =     -76.0278330990743001 [Eh]

	 ================> DF-SCS-MP2 Energies <==================
	-----------------------------------------------------------
	 SCS Same-Spin Scale       =       0.3333333333333333 [-]
	 SCS Opposite-Spin Scale   =       1.2000000000000000 [-]
	 SCS Same-Spin Energy      =      -0.0116314739268045 [Eh]
	 SCS Opposite-Spin Energy  =      -0.1456299327416490 [Eh]
	 SCS Correlation Energy    =      -0.1572614066684535 [Eh]
	 SCS Total Energy          =     -76.0288418066776330 [Eh]
	-----------------------------------------------------------

  -Total Gradient:
     Atom            X                  Y                   Z
    ------   -----------------  -----------------  -----------------
       1        0.093924651265    -0.015901698059     0.000000000000
       2        0.005251865348    -0.005141045393    -0.000000000000
       3       -0.099176516613     0.021042743452     0.000000000000

*** Psi4 exiting successfully. Buy a developer a beer!
