                               Psi4 1.2a1.dev429

  ==> Input File <==

--------------------------------------------------------------------------
# density-fitted hartree fock energies and gradients with 6-31g
molecule h20 {
0 1
O 0.0000000000 0.0000000000 0.0000000000
H 0.0000000000 0.0000000000 1.1000000000
H 0.0000000000 0.4446261863 -1.2216004070
}

set basis 6-31g

gradient('hf')
--------------------------------------------------------------------------

    Molecular point group: cs
  Charge       = 0
  Multiplicity = 1
  Basis Set: 6-31G
    Blend: 6-31G
  Basis Set: (6-31G AUX)
    Blend: CC-PVDZ-JKFIT

    Orbital Energies (a.u.)
    -----------------------

    Doubly Occupied:

       1Ap   -20.524467     2Ap    -1.205932     3Ap    -0.613448
       1App   -0.440006     4Ap    -0.436556

  @DF-RHF Final Energy:   -75.85186686030420

   => Energetics <=

    Nuclear Repulsion Energy =              7.3289044054115937
    One-Electron Energy =                -119.9207231974583578
    Two-Electron Energy =                  36.7399519317425742
    Total Energy =                        -75.8518668603041988
    Molecular point group: cs

    Geometry (in Angstrom), charge = 0, multiplicity = 1:

       Center              X                  Y                   Z               Mass
    ------------   -----------------  -----------------  -----------------  -----------------
           O          0.024880141647    -0.006804447070     0.000000000000    15.994914619560
           H          0.024880141647    -1.106804447070     0.000000000000     1.007825032070
           H         -0.419746044653     1.214795959930     0.000000000000     1.007825032070

  Basis Set: 6-31G
    Blend: 6-31G
  Basis Set: (6-31G AUX)
    Blend: CC-PVDZ-JKFIT

  -Total Gradient:
     Atom            X                  Y                   Z
    ------   -----------------  -----------------  -----------------
       1       -0.005139868789    -0.039983386863     0.000000000000
       2        0.031087089149    -0.108215112180     0.000000000000
       3       -0.025947220360     0.148198499043     0.000000000000

*** Psi4 exiting successfully. Buy a developer a beer!
