                               Psi4 1.2.1 release

  ==> Input File <==

--------------------------------------------------------------------------
# density fitted hartree fock
molecule h2o {
0 1
H 0.0000000000 0.0000000000 1.1125000000
H 0.0000000000 1.0250000000 0.0000000000
O 0.0000000000 0.0000000000 0.0000000000
}

set basis 6-31g
energy('hf')

--------------------------------------------------------------------------

    Molecular point group: cs

    Geometry (in Angstrom), charge = 0, multiplicity = 1:

       Center              X                  Y                   Z               Mass
    ------------   -----------------  -----------------  -----------------  -----------------
         H            0.057356372552    -1.050247351742     0.000000000000     1.007825032070
         H           -0.967643627448     0.062252648258     0.000000000000     1.007825032070
         O            0.057356372552     0.062252648258     0.000000000000    15.994914619560

  Charge       = 0
  Multiplicity = 1
  Basis Set: 6-31G
    Blend: 6-31G
  Basis Set: (6-31G AUX)
    Blend: CC-PVDZ-JKFIT

    Orbital Energies [Eh]
    ---------------------

    Doubly Occupied:

       1Ap   -20.593137     2Ap    -1.320655     3Ap    -0.632768
       4Ap    -0.569680     1App   -0.505088

  @DF-RHF Final Energy:   -75.95385783519056

   => Energetics <=

    Nuclear Repulsion Energy =              8.2853042775534664
    One-Electron Energy =                -121.2356645760094267
    Two-Electron Energy =                  36.9965024632654007
    Total Energy =                        -75.9538578351905613

  Dipole Moment: [D]
     X:    -2.0464      Y:    -2.0169      Z:     0.0000     Total:     2.8733

*** Psi4 exiting successfully. Buy a developer a beer!
