                               Psi4 1.3.1 release

  ==> Input File <==

--------------------------------------------------------------------------
# density fitted hartree fock
molecule h2o {
0 1
H 0.0000000000 0.0000000000 0.9000000000
H 0.0000000000 0.8122368849 -0.2505418982
O 0.0000000000 0.0000000000 0.0000000000
}

set basis 6-31g
energy('hf')

--------------------------------------------------------------------------

    Molecular point group: cs

    Geometry (in Angstrom), charge = 0, multiplicity = 1:

       Center              X                  Y                   Z               Mass
    ------------   -----------------  -----------------  -----------------  -----------------
         H            0.045450694027    -0.863657989416     0.000000000000     1.007825032230
         H           -0.766786190873     0.286883908784     0.000000000000     1.007825032230
         O            0.045450694027     0.036342010584     0.000000000000    15.994914619570

  Charge       = 0
  Multiplicity = 1
  Basis Set: 6-31G
    Blend: 6-31G
  Basis Set: (6-31G AUX)
    Blend: CC-PVDZ-JKFIT

    Orbital Energies [Eh]
    ---------------------

    Doubly Occupied:

       1Ap   -20.542288     2Ap    -1.403008     3Ap    -0.764795
       4Ap    -0.567576     1App   -0.505984

  @DF-RHF Final Energy:   -75.96771157081281

   => Energetics <=

    Nuclear Repulsion Energy =             10.0600290743653780
    One-Electron Energy =                -124.4881751698246575
    Two-Electron Energy =                  38.4604345246464803
    Total Energy =                        -75.9677115708128099

  Dipole Moment: [D]
     X:    -2.0266      Y:    -1.5379      Z:     0.0000     Total:     2.5441

*** Psi4 exiting successfully. Buy a developer a beer!
