                               Psi4 1.2a1.dev429

  ==> Input File <==

--------------------------------------------------------------------------
# density-fitted hartree fock energies and gradients with 6-31g
molecule o2 {
0 3
O 0.0000000000 0.0000000000 0.0000000000
O 0.0000000000 0.0000000000 1.0857142857
}

set basis 6-31g
set reference rohf

energy('scf')
--------------------------------------------------------------------------

    Molecular point group: d2h

    Geometry (in Angstrom), charge = 0, multiplicity = 3:

       Center              X                  Y                   Z               Mass
    ------------   -----------------  -----------------  -----------------  -----------------
           O          0.000000000000     0.000000000000    -0.542857142850    15.994914619560
           O          0.000000000000     0.000000000000     0.542857142850    15.994914619560

  Charge       = 0
  Multiplicity = 3
  Basis Set: 6-31G
    Blend: 6-31G
  Basis Set: (6-31G AUX)
    Blend: CC-PVDZ-JKFIT

    Orbital Energies (a.u.)
    -----------------------

    Doubly Occupied:

       1Ag   -20.726348     1B1u  -20.724847     2Ag    -1.823871
       2B1u   -1.053671     1B2u   -0.773197     1B3u   -0.773197
       3Ag    -0.758571

    Singly Occupied:

       1B3g   -0.172620     1B2g   -0.172620

  @DF-ROHF Final Energy:  -149.50421419543002

   => Energetics <=

    Nuclear Repulsion Energy =             31.1936038751893925
    One-Electron Energy =                -267.1259909897064517
    Two-Electron Energy =                  86.4281729190870465
    Total Energy =                       -149.5042141954300234
*** Psi4 exiting successfully. Buy a developer a beer!
