                               Psi4 1.2a1.dev429

  ==> Input File <==

--------------------------------------------------------------------------
# density-fitted hartree fock energies and gradients with 6-31g
molecule o2 {
0 3
O 0.0000000000 0.0000000000 0.0000000000
O 0.0000000000 0.0000000000 0.9414141414
}

set basis 6-31g
set reference rohf

gradient('scf')
--------------------------------------------------------------------------

    Molecular point group: d2h
  Charge       = 0
  Multiplicity = 3
  Basis Set: 6-31G
    Blend: 6-31G
  Basis Set: (6-31G AUX)
    Blend: CC-PVDZ-JKFIT

    Orbital Energies (a.u.)
    -----------------------

    Doubly Occupied:

       1Ag   -20.707474     1B1u  -20.703479     2Ag    -2.020000
       2B1u   -0.995402     1B3u   -0.868378     1B2u   -0.868378
       3Ag    -0.799154

    Singly Occupied:

       1B2g   -0.083133     1B3g   -0.083133

  @DF-ROHF Final Energy:  -149.32026774841708

   => Energetics <=

    Nuclear Repulsion Energy =             35.9749655973884686
    One-Electron Energy =                -275.8376589344746321
    Two-Electron Energy =                  90.5424255886690901
    Total Energy =                       -149.3202677484170806
    Molecular point group: d2h

    Geometry (in Angstrom), charge = 0, multiplicity = 3:

       Center              X                  Y                   Z               Mass
    ------------   -----------------  -----------------  -----------------  -----------------
           O          0.000000000000     0.000000000000    -0.470707070700    15.994914619560
           O          0.000000000000     0.000000000000     0.470707070700    15.994914619560

  Basis Set: 6-31G
    Blend: 6-31G
  Basis Set: (6-31G AUX)
    Blend: CC-PVDZ-JKFIT

  -Total Gradient:
     Atom            X                  Y                   Z
    ------   -----------------  -----------------  -----------------
       1       -0.000000000000     0.000000000000     1.212577659136
       2        0.000000000000    -0.000000000000    -1.212577659136

*** Psi4 exiting successfully. Buy a developer a beer!
