                               Psi4 1.2a1.dev429

  ==> Input File <==

--------------------------------------------------------------------------
# density-fitted hartree fock energies and gradients with 6-31g
molecule h2o {
0 1
O 0.0000000000 0.0000000000 0.0000000000
H 0.0000000000 0.0000000000 0.9000000000
H 0.0000000000 0.6928203230 -0.4000000000
}

set basis 6-31g

gradient('mp2')
--------------------------------------------------------------------------

    Molecular point group: cs
  Charge       = 0
  Multiplicity = 1
  Basis Set: 6-31G
    Blend: 6-31G
  Basis Set: (6-31G AUX)
    Blend: CC-PVDZ-JKFIT

    Orbital Energies (a.u.)
    -----------------------

    Doubly Occupied:

       1Ap   -20.529219     2Ap    -1.405737     3Ap    -0.805867
       4Ap    -0.547312     1App   -0.503506

  @DF-RHF Final Energy:   -75.94851515875939

   => Energetics <=

    Nuclear Repulsion Energy =             10.3547983921961144
    One-Electron Energy =                -125.0233436699994911
    Two-Electron Energy =                  38.7200301190439831
    Total Energy =                        -75.9485151587593919
  Basis Set: (6-31G AUX)
    Blend: CC-PVDZ-RI
    Molecular point group: cs

    Geometry (in Angstrom), charge = 0, multiplicity = 1:

       Center              X                  Y                   Z               Mass
    ------------   -----------------  -----------------  -----------------  -----------------
           O          0.038768449325     0.027978718318     0.000000000000    15.994914619560
           H          0.038768449325    -0.872021281682     0.000000000000     1.007825032070
           H         -0.654051873675     0.427978718318     0.000000000000     1.007825032070

  Basis Set: 6-31G
    Blend: 6-31G
  Basis Set: (6-31G AUX)
    Blend: CC-PVDZ-JKFIT
  Basis Set: (6-31G AUX)
    Blend: CC-PVDZ-JKFIT
	 Reference Energy          =     -75.9485151587593919 [Eh]
	 Singles Energy            =      -0.0000000000000000 [Eh]
	 Same-Spin Energy          =      -0.0281536496583768 [Eh]
	 Opposite-Spin Energy      =      -0.0906020217062732 [Eh]
	 Correlation Energy        =      -0.1187556713646500 [Eh]
	 Total Energy              =     -76.0672708301240448 [Eh]

	 ================> DF-SCS-MP2 Energies <==================
	-----------------------------------------------------------
	 SCS Same-Spin Scale       =       0.3333333333333333 [-]
	 SCS Opposite-Spin Scale   =       1.2000000000000000 [-]
	 SCS Same-Spin Energy      =      -0.0093845498861256 [Eh]
	 SCS Opposite-Spin Energy  =      -0.1087224260475278 [Eh]
	 SCS Correlation Energy    =      -0.1181069759336534 [Eh]
	 SCS Total Energy          =     -76.0666221346930485 [Eh]
	-----------------------------------------------------------

  -Total Gradient:
     Atom            X                  Y                   Z
    ------   -----------------  -----------------  -----------------
       1       -0.277055368784     0.070954858313    -0.000000000000
       2        0.005482653482     0.078715542686    -0.000000000000
       3        0.271572715302    -0.149670400999     0.000000000000

*** Psi4 exiting successfully. Buy a developer a beer!
