                               Psi4 1.2a1.dev429

  ==> Input File <==

--------------------------------------------------------------------------
# density-fitted hartree fock energies and gradients with 6-31g
molecule h20 {
0 1
O 0.0000000000 0.0000000000 0.0000000000
H 0.0000000000 0.0000000000 1.2000000000
H 0.0000000000 1.2802500789 -0.2257426310
}

set basis 6-31g

gradient('hf')
--------------------------------------------------------------------------

    Molecular point group: cs
  Charge       = 0
  Multiplicity = 1
  Basis Set: 6-31G
    Blend: 6-31G
  Basis Set: (6-31G AUX)
    Blend: CC-PVDZ-JKFIT

    Orbital Energies (a.u.)
    -----------------------

    Doubly Occupied:

       1Ap   -20.617609     2Ap    -1.256168     3Ap    -0.577384
       4Ap    -0.521413     1App   -0.498919

  @DF-RHF Final Energy:   -75.88714907761684

   => Energetics <=

    Nuclear Repulsion Energy =              7.0604843915611948
    One-Electron Energy =                -118.9522791446601246
    Two-Electron Energy =                  36.0046456754820881
    Total Energy =                        -75.8871490776168400
    Molecular point group: cs

    Geometry (in Angstrom), charge = 0, multiplicity = 1:

       Center              X                  Y                   Z               Mass
    ------------   -----------------  -----------------  -----------------  -----------------
           O          0.071639512669     0.054516944993     0.000000000000    15.994914619560
           H          0.071639512669    -1.145483055007     0.000000000000     1.007825032070
           H         -1.208610566231     0.280259575993     0.000000000000     1.007825032070

  Basis Set: 6-31G
    Blend: 6-31G
  Basis Set: (6-31G AUX)
    Blend: CC-PVDZ-JKFIT

  -Total Gradient:
     Atom            X                  Y                   Z
    ------   -----------------  -----------------  -----------------
       1        0.127059819402     0.096902846334     0.000000000000
       2       -0.000441962512    -0.118814727188     0.000000000000
       3       -0.126617856889     0.021911880853     0.000000000000

*** Psi4 exiting successfully. Buy a developer a beer!
