                               Psi4 1.2a1.dev429

  ==> Input File <==

--------------------------------------------------------------------------
# density-fitted hartree fock energies and gradients with 6-31g
molecule h2o {
0 1
O 0.0000000000 0.0000000000 0.0000000000
H 0.0000000000 0.0000000000 1.2000000000
H 0.0000000000 0.4446261863 -1.2216004070
}

set basis 6-31g

gradient('mp2')
--------------------------------------------------------------------------

    Molecular point group: cs
  Charge       = 0
  Multiplicity = 1
  Basis Set: 6-31G
    Blend: 6-31G
  Basis Set: (6-31G AUX)
    Blend: CC-PVDZ-JKFIT

    Orbital Energies (a.u.)
    -----------------------

    Doubly Occupied:

       1Ap   -20.529798     2Ap    -1.189359     3Ap    -0.588260
       1App   -0.437081     4Ap    -0.431837

  @DF-RHF Final Energy:   -75.82889962255247

   => Energetics <=

    Nuclear Repulsion Energy =              6.9992540892248911
    One-Electron Energy =                -119.3036377792275005
    Two-Electron Energy =                  36.4754840674501395
    Total Energy =                        -75.8288996225524699
  Basis Set: (6-31G AUX)
    Blend: CC-PVDZ-RI
    Molecular point group: cs

    Geometry (in Angstrom), charge = 0, multiplicity = 1:

       Center              X                  Y                   Z               Mass
    ------------   -----------------  -----------------  -----------------  -----------------
           O          0.024880141647    -0.001208703406     0.000000000000    15.994914619560
           H          0.024880141647    -1.201208703406     0.000000000000     1.007825032070
           H         -0.419746044653     1.220391703594     0.000000000000     1.007825032070

  Basis Set: 6-31G
    Blend: 6-31G
  Basis Set: (6-31G AUX)
    Blend: CC-PVDZ-JKFIT
  Basis Set: (6-31G AUX)
    Blend: CC-PVDZ-JKFIT
	 Reference Energy          =     -75.8288996225524699 [Eh]
	 Singles Energy            =      -0.0000000000000000 [Eh]
	 Same-Spin Energy          =      -0.0344696343637794 [Eh]
	 Opposite-Spin Energy      =      -0.1108024570261879 [Eh]
	 Correlation Energy        =      -0.1452720913899672 [Eh]
	 Total Energy              =     -75.9741717139424395 [Eh]

	 ================> DF-SCS-MP2 Energies <==================
	-----------------------------------------------------------
	 SCS Same-Spin Scale       =       0.3333333333333333 [-]
	 SCS Opposite-Spin Scale   =       1.2000000000000000 [-]
	 SCS Same-Spin Energy      =      -0.0114898781212598 [Eh]
	 SCS Opposite-Spin Energy  =      -0.1329629484314254 [Eh]
	 SCS Correlation Energy    =      -0.1444528265526852 [Eh]
	 SCS Total Energy          =     -75.9733524491051497 [Eh]
	-----------------------------------------------------------

  -Total Gradient:
     Atom            X                  Y                   Z
    ------   -----------------  -----------------  -----------------
       1       -0.030952555537    -0.014839927195     0.000000000000
       2        0.039109031433    -0.113121028397    -0.000000000000
       3       -0.008156475896     0.127960955592    -0.000000000000

*** Psi4 exiting successfully. Buy a developer a beer!
