                               Psi4 1.2a1.dev429

  ==> Input File <==

--------------------------------------------------------------------------
# density-fitted hartree fock energies and gradients with 6-31g
molecule h2o {
0 1
O 0.0000000000 0.0000000000 0.0000000000
H 0.0000000000 0.0000000000 1.1000000000
H 0.0000000000 1.3787308542 -0.2431074487
}

set basis 6-31g

gradient('mp2')
--------------------------------------------------------------------------

    Molecular point group: cs
  Charge       = 0
  Multiplicity = 1
  Basis Set: 6-31G
    Blend: 6-31G
  Basis Set: (6-31G AUX)
    Blend: CC-PVDZ-JKFIT

    Orbital Energies (a.u.)
    -----------------------

    Doubly Occupied:

       1Ap   -20.614830     2Ap    -1.265410     3Ap    -0.593523
       4Ap    -0.508918     1App   -0.499692

  @DF-RHF Final Energy:   -75.88300637958810

   => Energetics <=

    Nuclear Repulsion Energy =              7.1473577874656682
    One-Electron Energy =                -119.0959814301790658
    Two-Electron Energy =                  36.0656172631252900
    Total Energy =                        -75.8830063795881102
  Basis Set: (6-31G AUX)
    Blend: CC-PVDZ-RI
    Molecular point group: cs

    Geometry (in Angstrom), charge = 0, multiplicity = 1:

       Center              X                  Y                   Z               Mass
    ------------   -----------------  -----------------  -----------------  -----------------
           O          0.077150244412     0.047949510643     0.000000000000    15.994914619560
           H          0.077150244412    -1.052050489357     0.000000000000     1.007825032070
           H         -1.301580609788     0.291056959343     0.000000000000     1.007825032070

  Basis Set: 6-31G
    Blend: 6-31G
  Basis Set: (6-31G AUX)
    Blend: CC-PVDZ-JKFIT
  Basis Set: (6-31G AUX)
    Blend: CC-PVDZ-JKFIT
	 Reference Energy          =     -75.8830063795880960 [Eh]
	 Singles Energy            =      -0.0000000000000000 [Eh]
	 Same-Spin Energy          =      -0.0355936987125548 [Eh]
	 Opposite-Spin Energy      =      -0.1215551785438168 [Eh]
	 Correlation Energy        =      -0.1571488772563717 [Eh]
	 Total Energy              =     -76.0401552568444714 [Eh]

	 ================> DF-SCS-MP2 Energies <==================
	-----------------------------------------------------------
	 SCS Same-Spin Scale       =       0.3333333333333333 [-]
	 SCS Opposite-Spin Scale   =       1.2000000000000000 [-]
	 SCS Same-Spin Energy      =      -0.0118645662375183 [Eh]
	 SCS Opposite-Spin Energy  =      -0.1458662142525802 [Eh]
	 SCS Correlation Energy    =      -0.1577307804900985 [Eh]
	 SCS Total Energy          =     -76.0407371600781943 [Eh]
	-----------------------------------------------------------

  -Total Gradient:
     Atom            X                  Y                   Z
    ------   -----------------  -----------------  -----------------
       1        0.096692309302     0.041441136690    -0.000000000000
       2        0.004780317142    -0.063147393906     0.000000000000
       3       -0.101472626444     0.021706257216     0.000000000000

*** Psi4 exiting successfully. Buy a developer a beer!
