                               Psi4 1.2a1.dev429

  ==> Input File <==

--------------------------------------------------------------------------
# density-fitted hartree fock energies and gradients with 6-31g
molecule h2o {
0 1
O 0.0000000000 0.0000000000 0.0000000000
H 0.0000000000 0.0000000000 1.2000000000
H 0.0000000000 0.0000000000 -1.2000000000
}

set basis 6-31g

gradient('mp2')
--------------------------------------------------------------------------

    Molecular point group: d2h
  Charge       = 0
  Multiplicity = 1
  Basis Set: 6-31G
    Blend: 6-31G
  Basis Set: (6-31G AUX)
    Blend: CC-PVDZ-JKFIT

    Orbital Energies (a.u.)
    -----------------------

    Doubly Occupied:

       1Ag   -20.506632     2Ag    -1.186372     1B1u   -0.607781
       1B3u   -0.426184     1B2u   -0.426184

  @DF-RHF Final Energy:   -75.84317368793964

   => Energetics <=

    Nuclear Repulsion Energy =              7.2761866181125017
    One-Electron Energy =                -119.9324133730292630
    Two-Electron Energy =                  36.8130530669771119
    Total Energy =                        -75.8431736879396396
  Basis Set: (6-31G AUX)
    Blend: CC-PVDZ-RI
    Molecular point group: d2h

    Geometry (in Angstrom), charge = 0, multiplicity = 1:

       Center              X                  Y                   Z               Mass
    ------------   -----------------  -----------------  -----------------  -----------------
           O          0.000000000000     0.000000000000     0.000000000000    15.994914619560
           H          0.000000000000     0.000000000000     1.200000000000     1.007825032070
           H          0.000000000000     0.000000000000    -1.200000000000     1.007825032070

  Basis Set: 6-31G
    Blend: 6-31G
  Basis Set: (6-31G AUX)
    Blend: CC-PVDZ-JKFIT
  Basis Set: (6-31G AUX)
    Blend: CC-PVDZ-JKFIT
	 Reference Energy          =     -75.8431736879396396 [Eh]
	 Singles Energy            =      -0.0000000000000000 [Eh]
	 Same-Spin Energy          =      -0.0334752252116476 [Eh]
	 Opposite-Spin Energy      =      -0.1046086542696464 [Eh]
	 Correlation Energy        =      -0.1380838794812940 [Eh]
	 Total Energy              =     -75.9812575674209398 [Eh]

	 ================> DF-SCS-MP2 Energies <==================
	-----------------------------------------------------------
	 SCS Same-Spin Scale       =       0.3333333333333333 [-]
	 SCS Opposite-Spin Scale   =       1.2000000000000000 [-]
	 SCS Same-Spin Energy      =      -0.0111584084038825 [Eh]
	 SCS Opposite-Spin Energy  =      -0.1255303851235757 [Eh]
	 SCS Correlation Energy    =      -0.1366887935274582 [Eh]
	 SCS Total Energy          =     -75.9798624814670944 [Eh]
	-----------------------------------------------------------

  -Total Gradient:
     Atom            X                  Y                   Z
    ------   -----------------  -----------------  -----------------
       1       -0.000000000000    -0.000000000000     0.000000000002
       2        0.000000000000     0.000000000000     0.130379560131
       3        0.000000000000     0.000000000000    -0.130379560133

*** Psi4 exiting successfully. Buy a developer a beer!
