                               Psi4 1.2a1.dev429

  ==> Input File <==

--------------------------------------------------------------------------
# density-fitted hartree fock energies and gradients with 6-31g
molecule h2o {
0 1
O 0.0000000000 0.0000000000 0.0000000000
H 0.0000000000 0.0000000000 1.3000000000
H 0.0000000000 0.1736481777 -0.9848077530
}

set basis 6-31g

gradient('mp2')
--------------------------------------------------------------------------

    Molecular point group: cs
  Charge       = 0
  Multiplicity = 1
  Basis Set: 6-31G
    Blend: 6-31G
  Basis Set: (6-31G AUX)
    Blend: CC-PVDZ-JKFIT

    Orbital Energies (a.u.)
    -----------------------

    Doubly Occupied:

       1Ap   -20.505610     2Ap    -1.218912     3Ap    -0.637568
       1App   -0.434965     4Ap    -0.434112

  @DF-RHF Final Energy:   -75.85923258303551

   => Energetics <=

    Nuclear Repulsion Energy =              7.7208336661775459
    One-Electron Energy =                -120.6977980205490866
    Two-Electron Energy =                  37.1177317713360466
    Total Energy =                        -75.8592325830354923
  Basis Set: (6-31G AUX)
    Blend: CC-PVDZ-RI
    Molecular point group: cs

    Geometry (in Angstrom), charge = 0, multiplicity = 1:

       Center              X                  Y                   Z               Mass
    ------------   -----------------  -----------------  -----------------  -----------------
           O          0.009716906901     0.017637350190     0.000000000000    15.994914619560
           H          0.009716906901    -1.282362649810     0.000000000000     1.007825032070
           H         -0.163931270799     1.002445103190     0.000000000000     1.007825032070

  Basis Set: 6-31G
    Blend: 6-31G
  Basis Set: (6-31G AUX)
    Blend: CC-PVDZ-JKFIT
  Basis Set: (6-31G AUX)
    Blend: CC-PVDZ-JKFIT
	 Reference Energy          =     -75.8592325830355065 [Eh]
	 Singles Energy            =      -0.0000000000000000 [Eh]
	 Same-Spin Energy          =      -0.0330220853870526 [Eh]
	 Opposite-Spin Energy      =      -0.1037428358561832 [Eh]
	 Correlation Energy        =      -0.1367649212432357 [Eh]
	 Total Energy              =     -75.9959975042787477 [Eh]

	 ================> DF-SCS-MP2 Energies <==================
	-----------------------------------------------------------
	 SCS Same-Spin Scale       =       0.3333333333333333 [-]
	 SCS Opposite-Spin Scale   =       1.2000000000000000 [-]
	 SCS Same-Spin Energy      =      -0.0110073617956842 [Eh]
	 SCS Opposite-Spin Energy  =      -0.1244914030274198 [Eh]
	 SCS Correlation Energy    =      -0.1354987648231040 [Eh]
	 SCS Total Energy          =     -75.9947313478586040 [Eh]
	-----------------------------------------------------------

  -Total Gradient:
     Atom            X                  Y                   Z
    ------   -----------------  -----------------  -----------------
       1       -0.034067640457     0.097365689411     0.000000000000
       2        0.018163251029    -0.143144808936    -0.000000000000
       3        0.015904389428     0.045779119525     0.000000000000

*** Psi4 exiting successfully. Buy a developer a beer!
