                               Psi4 1.3.1 release

  ==> Input File <==

--------------------------------------------------------------------------
# density fitted hartree fock
molecule h2o {
0 1
H 0.0000000000 0.0000000000 0.9000000000
H 0.0000000000 0.8377863738 -0.3288069219
O 0.0000000000 0.0000000000 0.0000000000
}

set basis 6-31g
energy('hf')

--------------------------------------------------------------------------

    Molecular point group: c2v

    Geometry (in Angstrom), charge = 0, multiplicity = 1:

       Center              X                  Y                   Z               Mass
    ------------   -----------------  -----------------  -----------------  -----------------
         H            0.000000000000    -0.743614896878     0.450248548645     1.007825032230
         H           -0.000000000000     0.743614896878     0.450248548645     1.007825032230
         O            0.000000000000     0.000000000000    -0.056739503629    15.994914619570

  Charge       = 0
  Multiplicity = 1
  Basis Set: 6-31G
    Blend: 6-31G
  Basis Set: (6-31G AUX)
    Blend: CC-PVDZ-JKFIT

    Orbital Energies [Eh]
    ---------------------

    Doubly Occupied:

       1A1   -20.544165     2A1    -1.381026     1B2    -0.756994
       3A1    -0.555771     1B1    -0.502031

  @DF-RHF Final Energy:   -75.97953021334439

   => Energetics <=

    Nuclear Repulsion Energy =              9.7634088757021757
    One-Electron Energy =                -124.0059011886592799
    Two-Electron Energy =                  38.2629620996127073
    Total Energy =                        -75.9795302133443897

  Dipole Moment: [D]
     X:    -0.0000      Y:     0.0000      Z:     2.4785     Total:     2.4785

*** Psi4 exiting successfully. Buy a developer a beer!
