                               Psi4 1.2a1.dev429

  ==> Input File <==

--------------------------------------------------------------------------
# density-fitted hartree fock energies and gradients with 6-31g
molecule h20 {
0 1
O 0.0000000000 0.0000000000 0.0000000000
O 0.0000000000 0.0000000000 1.2666666667
}

set basis 6-31g

gradient('hf')
--------------------------------------------------------------------------

    Molecular point group: d2h
  Charge       = 0
  Multiplicity = 1
  Basis Set: 6-31G
    Blend: 6-31G
  Basis Set: (6-31G AUX)
    Blend: CC-PVDZ-JKFIT

    Orbital Energies (a.u.)
    -----------------------

    Doubly Occupied:

       1Ag   -20.767582     1B1u  -20.766906     2Ag    -1.640477
       2B1u   -1.126373     1B3u   -0.763418     3Ag    -0.710668
       1B2u   -0.631702     1B2g   -0.508071

  @DF-RHF Final Energy:  -149.45399072089700

   => Energetics <=

    Nuclear Repulsion Energy =             26.7373747491069089
    One-Electron Energy =                -258.5523355742910780
    Two-Electron Energy =                  82.3609701042871620
    Total Energy =                       -149.4539907208969964
    Molecular point group: d2h

    Geometry (in Angstrom), charge = 0, multiplicity = 1:

       Center              X                  Y                   Z               Mass
    ------------   -----------------  -----------------  -----------------  -----------------
           O          0.000000000000     0.000000000000    -0.633333333350    15.994914619560
           O          0.000000000000     0.000000000000     0.633333333350    15.994914619560

  Basis Set: 6-31G
    Blend: 6-31G
  Basis Set: (6-31G AUX)
    Blend: CC-PVDZ-JKFIT

  -Total Gradient:
     Atom            X                  Y                   Z
    ------   -----------------  -----------------  -----------------
       1        0.000000000000     0.000000000000    -0.100433186213
       2       -0.000000000000     0.000000000000     0.100433186213

*** Psi4 exiting successfully. Buy a developer a beer!
