                               Psi4 1.2a1.dev429

  ==> Input File <==

--------------------------------------------------------------------------
# density-fitted hartree fock energies and gradients with 6-31g
molecule h2o {
0 1
O 0.0000000000 0.0000000000 0.0000000000
H 0.0000000000 0.0000000000 1.3000000000
H 0.0000000000 1.1817693036 -0.2083778132
}

set basis 6-31g

gradient('mp2')
--------------------------------------------------------------------------

    Molecular point group: cs
  Charge       = 0
  Multiplicity = 1
  Basis Set: 6-31G
    Blend: 6-31G
  Basis Set: (6-31G AUX)
    Blend: CC-PVDZ-JKFIT

    Orbital Energies (a.u.)
    -----------------------

    Doubly Occupied:

       1Ap   -20.617609     2Ap    -1.256168     3Ap    -0.577384
       4Ap    -0.521413     1App   -0.498919

  @DF-RHF Final Energy:   -75.88714907761542

   => Energetics <=

    Nuclear Repulsion Energy =              7.0604843915823166
    One-Electron Energy =                -118.9522790762001847
    Two-Electron Energy =                  36.0046456070024448
    Total Energy =                        -75.8871490776154189
  Basis Set: (6-31G AUX)
    Blend: CC-PVDZ-RI
    Molecular point group: cs

    Geometry (in Angstrom), charge = 0, multiplicity = 1:

       Center              X                  Y                   Z               Mass
    ------------   -----------------  -----------------  -----------------  -----------------
           O          0.066128780925     0.061084379349     0.000000000000    15.994914619560
           H          0.066128780925    -1.238915620651     0.000000000000     1.007825032070
           H         -1.115640522675     0.269462192549     0.000000000000     1.007825032070

  Basis Set: 6-31G
    Blend: 6-31G
  Basis Set: (6-31G AUX)
    Blend: CC-PVDZ-JKFIT
  Basis Set: (6-31G AUX)
    Blend: CC-PVDZ-JKFIT
	 Reference Energy          =     -75.8871490776154189 [Eh]
	 Singles Energy            =      -0.0000000000000000 [Eh]
	 Same-Spin Energy          =      -0.0359556938258946 [Eh]
	 Opposite-Spin Energy      =      -0.1216738646313016 [Eh]
	 Correlation Energy        =      -0.1576295584571961 [Eh]
	 Total Energy              =     -76.0447786360726212 [Eh]

	 ================> DF-SCS-MP2 Energies <==================
	-----------------------------------------------------------
	 SCS Same-Spin Scale       =       0.3333333333333333 [-]
	 SCS Opposite-Spin Scale   =       1.2000000000000000 [-]
	 SCS Same-Spin Energy      =      -0.0119852312752982 [Eh]
	 SCS Opposite-Spin Energy  =      -0.1460086375575619 [Eh]
	 SCS Correlation Energy    =      -0.1579938688328600 [Eh]
	 SCS Total Energy          =     -76.0451429464482800 [Eh]
	-----------------------------------------------------------

  -Total Gradient:
     Atom            X                  Y                   Z
    ------   -----------------  -----------------  -----------------
       1        0.084201936006     0.081351433748     0.000000000000
       2        0.004065736419    -0.101387906898     0.000000000000
       3       -0.088267672425     0.020036473151    -0.000000000000

*** Psi4 exiting successfully. Buy a developer a beer!
