                               Psi4 1.2a1.dev429

  ==> Input File <==

--------------------------------------------------------------------------
# density-fitted hartree fock energies and gradients with 6-31g
molecule o2 {
0 3
O 0.0000000000 0.0000000000 0.0000000000
O 0.0000000000 0.0000000000 1.2171717172
}

set basis 6-31g
set reference rohf

gradient('scf')
--------------------------------------------------------------------------

    Molecular point group: d2h
  Charge       = 0
  Multiplicity = 3
  Basis Set: 6-31G
    Blend: 6-31G
  Basis Set: (6-31G AUX)
    Blend: CC-PVDZ-JKFIT

    Orbital Energies (a.u.)
    -----------------------

    Doubly Occupied:

       1Ag   -20.750231     1B1u  -20.749430     2Ag    -1.680799
       2B1u   -1.104692     3Ag    -0.720915     1B2u   -0.711934
       1B3u   -0.711934

    Singly Occupied:

       1B3g   -0.233091     1B2g   -0.233091

  @DF-ROHF Final Energy:  -149.52702749150060

   => Energetics <=

    Nuclear Repulsion Energy =             27.8246206933471356
    One-Electron Energy =                -260.7312650652162347
    Two-Electron Energy =                  83.3796168803685305
    Total Energy =                       -149.5270274915005757
    Molecular point group: d2h

    Geometry (in Angstrom), charge = 0, multiplicity = 3:

       Center              X                  Y                   Z               Mass
    ------------   -----------------  -----------------  -----------------  -----------------
           O          0.000000000000     0.000000000000    -0.608585858600    15.994914619560
           O          0.000000000000     0.000000000000     0.608585858600    15.994914619560

  Basis Set: 6-31G
    Blend: 6-31G
  Basis Set: (6-31G AUX)
    Blend: CC-PVDZ-JKFIT

  -Total Gradient:
     Atom            X                  Y                   Z
    ------   -----------------  -----------------  -----------------
       1       -0.000000000000     0.000000000000    -0.046968062439
       2        0.000000000000     0.000000000000     0.046968062439

*** Psi4 exiting successfully. Buy a developer a beer!
