                               Psi4 1.2a1.dev429

  ==> Input File <==

--------------------------------------------------------------------------
# density-fitted hartree fock energies and gradients with 6-31g
molecule h2o {
0 1
O 0.0000000000 0.0000000000 0.0000000000
H 0.0000000000 0.0000000000 1.5000000000
H 0.0000000000 0.8426488874 -0.7070663707
}

set basis 6-31g

gradient('mp2')
--------------------------------------------------------------------------

    Molecular point group: cs
  Charge       = 0
  Multiplicity = 1
  Basis Set: 6-31G
    Blend: 6-31G
  Basis Set: (6-31G AUX)
    Blend: CC-PVDZ-JKFIT

    Orbital Energies (a.u.)
    -----------------------

    Doubly Occupied:

       1Ap   -20.586407     2Ap    -1.234466     3Ap    -0.589719
       1App   -0.476466     4Ap    -0.459027

  @DF-RHF Final Energy:   -75.83888991645648

   => Energetics <=

    Nuclear Repulsion Energy =              6.8948344721513557
    One-Electron Energy =                -118.7752790567074754
    Two-Electron Energy =                  36.0415546680996428
    Total Energy =                        -75.8388899164564805
  Basis Set: (6-31G AUX)
    Blend: CC-PVDZ-RI
    Molecular point group: cs

    Geometry (in Angstrom), charge = 0, multiplicity = 1:

       Center              X                  Y                   Z               Mass
    ------------   -----------------  -----------------  -----------------  -----------------
           O          0.047152471723     0.044370533318     0.000000000000    15.994914619560
           H          0.047152471723    -1.455629466682     0.000000000000     1.007825032070
           H         -0.795496415677     0.751436904018     0.000000000000     1.007825032070

  Basis Set: 6-31G
    Blend: 6-31G
  Basis Set: (6-31G AUX)
    Blend: CC-PVDZ-JKFIT
  Basis Set: (6-31G AUX)
    Blend: CC-PVDZ-JKFIT
	 Reference Energy          =     -75.8388899164564805 [Eh]
	 Singles Energy            =      -0.0000000000000000 [Eh]
	 Same-Spin Energy          =      -0.0356228571486439 [Eh]
	 Opposite-Spin Energy      =      -0.1224452309707671 [Eh]
	 Correlation Energy        =      -0.1580680881194111 [Eh]
	 Total Energy              =     -75.9969580045758875 [Eh]

	 ================> DF-SCS-MP2 Energies <==================
	-----------------------------------------------------------
	 SCS Same-Spin Scale       =       0.3333333333333333 [-]
	 SCS Opposite-Spin Scale   =       1.2000000000000000 [-]
	 SCS Same-Spin Energy      =      -0.0118742857162146 [Eh]
	 SCS Opposite-Spin Energy  =      -0.1469342771649206 [Eh]
	 SCS Correlation Energy    =      -0.1588085628811352 [Eh]
	 SCS Total Energy          =     -75.9976984793376147 [Eh]
	-----------------------------------------------------------

  -Total Gradient:
     Atom            X                  Y                   Z
    ------   -----------------  -----------------  -----------------
       1        0.003476501144     0.030310342749    -0.000000000000
       2        0.026288924377    -0.102083437504     0.000000000000
       3       -0.029765425521     0.071773094755    -0.000000000000

*** Psi4 exiting successfully. Buy a developer a beer!
