                               Psi4 1.2a1.dev429

  ==> Input File <==

--------------------------------------------------------------------------
# density-fitted hartree fock energies and gradients with 6-31g
molecule h2o {
0 1
O 0.0000000000 0.0000000000 0.0000000000
H 0.0000000000 0.0000000000 0.8000000000
H 0.0000000000 0.1910129954 -1.0832885283
}

set basis 6-31g

gradient('mp2')
--------------------------------------------------------------------------

    Molecular point group: cs
  Charge       = 0
  Multiplicity = 1
  Basis Set: 6-31G
    Blend: 6-31G
  Basis Set: (6-31G AUX)
    Blend: CC-PVDZ-JKFIT

    Orbital Energies (a.u.)
    -----------------------

    Doubly Occupied:

       1Ap   -20.500452     2Ap    -1.319706     3Ap    -0.766259
       4Ap    -0.467772     1App   -0.467048

  @DF-RHF Final Energy:   -75.89091287668728

   => Energetics <=

    Nuclear Repulsion Energy =              9.4198851310959721
    One-Electron Energy =                -123.5791210895520749
    Two-Electron Energy =                  38.2683230817688340
    Total Energy =                        -75.8909128766872811
  Basis Set: (6-31G AUX)
    Blend: CC-PVDZ-RI
    Molecular point group: cs

    Geometry (in Angstrom), charge = 0, multiplicity = 1:

       Center              X                  Y                   Z               Mass
    ------------   -----------------  -----------------  -----------------  -----------------
           O          0.010688597587    -0.015852099872     0.000000000000    15.994914619560
           H          0.010688597587    -0.815852099872     0.000000000000     1.007825032070
           H         -0.180324397813     1.067436428428     0.000000000000     1.007825032070

  Basis Set: 6-31G
    Blend: 6-31G
  Basis Set: (6-31G AUX)
    Blend: CC-PVDZ-JKFIT
  Basis Set: (6-31G AUX)
    Blend: CC-PVDZ-JKFIT
	 Reference Energy          =     -75.8909128766872811 [Eh]
	 Singles Energy            =      -0.0000000000000000 [Eh]
	 Same-Spin Energy          =      -0.0300917384923098 [Eh]
	 Opposite-Spin Energy      =      -0.0945616908084262 [Eh]
	 Correlation Energy        =      -0.1246534293007360 [Eh]
	 Total Energy              =     -76.0155663059880169 [Eh]

	 ================> DF-SCS-MP2 Energies <==================
	-----------------------------------------------------------
	 SCS Same-Spin Scale       =       0.3333333333333333 [-]
	 SCS Opposite-Spin Scale   =       1.2000000000000000 [-]
	 SCS Same-Spin Energy      =      -0.0100305794974366 [Eh]
	 SCS Opposite-Spin Energy  =      -0.1134740289701114 [Eh]
	 SCS Correlation Energy    =      -0.1235046084675480 [Eh]
	 SCS Total Energy          =     -76.0144174851548229 [Eh]
	-----------------------------------------------------------

  -Total Gradient:
     Atom            X                  Y                   Z
    ------   -----------------  -----------------  -----------------
       1       -0.008760646670    -0.415010411213    -0.000000000000
       2        0.017483949079     0.292311887863     0.000000000000
       3       -0.008723302409     0.122698523350    -0.000000000000

*** Psi4 exiting successfully. Buy a developer a beer!
