                               Psi4 1.2a1.dev429

  ==> Input File <==

--------------------------------------------------------------------------
# density-fitted hartree fock energies and gradients with 6-31g
molecule h20 {
0 1
O 0.0000000000 0.0000000000 0.0000000000
H 0.0000000000 0.0000000000 1.2000000000
H 0.0000000000 0.4788282007 -1.3155696691
}

set basis 6-31g

gradient('hf')
--------------------------------------------------------------------------

    Molecular point group: cs
  Charge       = 0
  Multiplicity = 1
  Basis Set: 6-31G
    Blend: 6-31G
  Basis Set: (6-31G AUX)
    Blend: CC-PVDZ-JKFIT

    Orbital Energies (a.u.)
    -----------------------

    Doubly Occupied:

       1Ap   -20.533312     2Ap    -1.181423     3Ap    -0.567678
       1App   -0.435354     4Ap    -0.426227

  @DF-RHF Final Energy:   -75.80211892353152

   => Energetics <=

    Nuclear Repulsion Energy =              6.7583682818023396
    One-Electron Energy =                -118.8329878835653659
    Two-Electron Energy =                  36.2725006782315091
    Total Energy =                        -75.8021189235315234
    Molecular point group: cs

    Geometry (in Angstrom), charge = 0, multiplicity = 1:

       Center              X                  Y                   Z               Mass
    ------------   -----------------  -----------------  -----------------  -----------------
           O          0.026793998700    -0.006466982436     0.000000000000    15.994914619560
           H          0.026793998700    -1.206466982436     0.000000000000     1.007825032070
           H         -0.452034202000     1.309102686664     0.000000000000     1.007825032070

  Basis Set: 6-31G
    Blend: 6-31G
  Basis Set: (6-31G AUX)
    Blend: CC-PVDZ-JKFIT

  -Total Gradient:
     Atom            X                  Y                   Z
    ------   -----------------  -----------------  -----------------
       1       -0.010532225838    -0.014871328486     0.000000000000
       2        0.032293510086    -0.125848661444     0.000000000000
       3       -0.021761284248     0.140719989930     0.000000000000

*** Psi4 exiting successfully. Buy a developer a beer!
