                               Psi4 1.2a1.dev429

  ==> Input File <==

--------------------------------------------------------------------------
# density-fitted MP2 energies and gradients with 6-31g

molecule h20 {
0 2
C 0.0000000000 0.0000000000 0.0000000000
H 0.0000000000 0.0000000000 1.9000000000
H 0.0000000000 0.8660254038 -0.5000000000
H 0.0000000000 -0.8660254038 -0.5000000000
}

set reference uhf
set basis 6-31g

gradient('mp2')
--------------------------------------------------------------------------

    Molecular point group: c1

    Geometry (in Angstrom), charge = 0, multiplicity = 2:

       Center              X                  Y                   Z               Mass
    ------------   -----------------  -----------------  -----------------  -----------------
           C          0.000000000000     0.000000000000    -0.060375014639    12.000000000000
           H          0.000000000000     0.000000000000     1.839624985361     1.007825032070
           H         -0.000000000000     0.866025403800    -0.560375014639     1.007825032070
           H          0.000000000000    -0.866025403800    -0.560375014639     1.007825032070

  Charge       = 0
  Multiplicity = 2
  Basis Set: 6-31G
    Blend: 6-31G
  Basis Set: (6-31G AUX)
    Blend: CC-PVDZ-JKFIT

    Orbital Energies (a.u.)
    -----------------------

    Alpha Occupied:

       1A    -11.281320     2A     -0.944946     3A     -0.624988
       4A     -0.424591     5A     -0.396913

    Alpha Virtual:

       6A      0.081482     7A      0.289423     8A      0.345651
       9A      0.715547    10A      0.726477    11A      0.788452
      12A      0.977503    13A      1.044519    14A      1.295634
      15A      1.327630

    Beta Occupied:

       1A    -11.263771     2A     -0.873335     3A     -0.616785
       4A     -0.400872

    Beta Virtual:

       5A      0.112009     6A      0.138292     7A      0.302334
       8A      0.346120     9A      0.721809    10A      0.795492
      11A      0.866992    12A      0.989872    13A      1.093199
      14A      1.313448    15A      1.325129

    Final Occupation by Irrep:
              A
    DOCC [     4 ]
    SOCC [     1 ]

  Energy converged.

  @DF-UHF Final Energy:   -39.38563004283350

   => Energetics <=

    Nuclear Repulsion Energy =              8.7415348288075396
    One-Electron Energy =                 -69.4268096153794829
    Two-Electron Energy =                  21.2996447437384475
    Total Energy =                        -39.3856300428334976

  UHF NO Occupations:
  HONO-2 :    3  A 1.9983261
  HONO-1 :    4  A 1.9613218
  HONO-0 :    5  A 1.0000000
  LUNO+0 :    6  A 0.0386782
  LUNO+1 :    7  A 0.0016739
  LUNO+2 :    8  A 0.0004945
  LUNO+3 :    9  A 0.0000002

Properties will be evaluated at   0.000000,   0.000000,   0.000000 Bohr

Properties computed using the SCF density matrix

  Nuclear Dipole Moment: (a.u.)
     X:     0.0000      Y:     0.0000      Z:     0.6739

  Electronic Dipole Moment: (a.u.)
     X:    -0.0000      Y:    -0.0000      Z:    -1.0360

  Dipole Moment: (a.u.)
     X:    -0.0000      Y:    -0.0000      Z:    -0.3621     Total:     0.3621

  Dipole Moment: (Debye)
     X:    -0.0000      Y:    -0.0000      Z:    -0.9204     Total:     0.9204

*** tstop() called on adabbott at Thu Apr 12 13:56:24 2018
Module time:
	user time   =       0.15 seconds =       0.00 minutes
	system time =       0.23 seconds =       0.00 minutes
	total time  =          0 seconds =       0.00 minutes
Total time:
	user time   =       0.15 seconds =       0.00 minutes
	system time =       0.23 seconds =       0.00 minutes
	total time  =          0 seconds =       0.00 minutes
   => Loading Basis Set <=

    Name: (6-31G AUX)
    Role: JKFIT
    Keyword: DF_BASIS_SCF
    atoms 1   entry C          line   121 file /home/adabbott/Git/psi4/objdir/stage/usr/local/psi4/share/psi4/basis/cc-pvdz-jkfit.gbs
    atoms 2-4 entry H          line    51 file /home/adabbott/Git/psi4/objdir/stage/usr/local/psi4/share/psi4/basis/cc-pvdz-jkfit.gbs

   => Loading Basis Set <=

    Name: (6-31G AUX)
    Role: RIFIT
    Keyword: DF_BASIS_CC
    atoms 1   entry C          line   159 file /home/adabbott/Git/psi4/objdir/stage/usr/local/psi4/share/psi4/basis/cc-pvdz-ri.gbs
    atoms 2-4 entry H          line    19 file /home/adabbott/Git/psi4/objdir/stage/usr/local/psi4/share/psi4/basis/cc-pvdz-ri.gbs

*** tstart() called on adabbott
*** at Thu Apr 12 13:56:25 2018

  Options:
  ----------------------------------------------------------------------------
  ACTIVE                      => [  ]
  BASIS_RELATIVISTIC          => (empty)
  BENCH                       => 0
  CC_DIIS_MAX_VECS            => 6
  CC_DIIS_MIN_VECS            => 2
  CC_LAMBDA                   => FALSE
  CC_MAXITER                  => 50
  CC_TYPE                     => CONV
  CHOLESKY                    => FALSE
  CHOLESKY_TOLERANCE          => 0.0001
  CI_TYPE                     => CONV
  COMPUT_S2                   => FALSE
  CUBEPROP_BASIS_FUNCTIONS    => [  ]
  CUBEPROP_FILEPATH           => .
  CUBEPROP_ORBITALS           => [  ]
  CUBEPROP_TASKS              => [  ]
  CUBIC_BASIS_TOLERANCE       => 1e-12
  CUBIC_BLOCK_MAX_POINTS      => 1000
  CUBIC_GRID_OVERAGE          => [  ]
  CUBIC_GRID_SPACING          => [  ]
  CUTOFF                      => 8
  DEBUG                       => 0
  DERTYPE                     => FIRST           !
  DF_BASIS_CC                 => (empty)
  DIE_IF_NOT_CONVERGED        => TRUE
  DKH_ORDER                   => 2
  DOCC                        => [  ]
  DO_DIIS                     => TRUE
  DO_LEVEL_SHIFT              => TRUE
  DO_SCS                      => FALSE           !
  DO_SOS                      => FALSE           !
  E3_SCALE                    => 0.25
  EKT_IP                      => FALSE
  EXTERNAL_POTENTIAL_SYMMETRY => FALSE
  E_CONVERGENCE               => 1e-08           !
  FREEZE_CORE                 => FALSE
  FROZEN_DOCC                 => [  ]
  FROZEN_UOCC                 => [  ]
  HESS_TYPE                   => HF
  INTEGRAL_CUTOFF             => 9
  INTEGRAL_PACKAGE            => LIBINT
  LEVEL_SHIFT                 => 0.02
  LINEQ_SOLVER                => CDGESV
  LITERAL_CFOUR               => (empty)
  MAT_NUM_COLUMN_PRINT        => 5
  MAX_MOGRAD_CONVERGENCE      => 0.001
  MOLDEN_WITH_VIRTUAL         => TRUE
  MOLDEN_WRITE                => FALSE
  MO_DIIS_NUM_VECS            => 6
  MO_MAXITER                  => 50
  MO_STEP_MAX                 => 0.5
  MP2_AMP_TYPE                => DIRECT
  MP2_OS_SCALE                => 1.2
  MP2_SOS_SCALE               => 1.3
  MP2_SOS_SCALE2              => 1.2
  MP2_SS_SCALE                => 0.333333
  MP2_TYPE                    => DF
  MP_TYPE                     => CONV
  NAT_ORBS                    => FALSE
  NUM_FROZEN_DOCC             => 0
  NUM_FROZEN_UOCC             => 0
  OCC_ORBS_PRINT              => FALSE
  OEPROP                      => FALSE
  OO_SCALE                    => 0.01
  OPT_METHOD                  => QNR
  ORB_OPT                     => FALSE           !
  ORB_RESP_SOLVER             => PCG
  ORTH_TYPE                   => MGS
  PCG_BETA_TYPE               => FLETCHER_REEVES
  PCG_CONVERGENCE             => 1e-06
  PCG_MAXITER                 => 50
  PCM                         => FALSE
  PCM_CC_TYPE                 => PTE
  PCM_SCF_TYPE                => TOTAL
  PPL_TYPE                    => AUTO
  PRINT                       => 1
  PRINT_NOONS                 => 3
  PROPERTIES                  => [  ]
  PROPERTIES_ORIGIN           => [  ]
  PUREAM                      => TRUE
  QCHF                        => FALSE
  QC_MODULE                   => (empty)
  RAS1                        => [  ]
  RAS2                        => [  ]
  RAS3                        => [  ]
  RAS4                        => [  ]
  READ_SCF_3INDEX             => TRUE
  REGULARIZATION              => FALSE
  REG_PARAM                   => 0.4
  RELATIVISTIC                => NO
  RESTRICTED_DOCC             => [  ]
  RESTRICTED_UOCC             => [  ]
  RMS_MOGRAD_CONVERGENCE      => 1e-06
  R_CONVERGENCE               => 1e-05
  SCS_TYPE                    => SCS
  SOCC                        => [  ]
  SOS_TYPE                    => SOS
  TRIPLES_IABC_TYPE           => DISK
  UNITS                       => ANGSTROMS
  WFN                         => SCF
  WFN_TYPE                    => DF-OMP2         !
  WRITER_FILE_LABEL           => (empty)

 ==============================================================================
 ==============================================================================
 ==============================================================================

                       DF-MP2
              Program Written by Ugur Bozkaya
              Latest Revision April 17, 2016

 ==============================================================================
 ==============================================================================
 ==============================================================================

	MO Hessian type is changed to 'APPROX_DIAG'
	MO spaces...

	 FC   AOCC   BOCC  AVIR   BVIR   FV
	------------------------------------------
	  0     5     4    10     11     0
	Reading DF integrals from disk ...
	Number of basis functions in the DF-HF basis: 156
	Number of basis functions in the DF-CC basis:  98

	Available memory                      :    500.00 MB
	Minimum required memory for amplitudes:      0.06 MB

	Computing DF-MP2 energy using SCF MOs (Canonical DF-MP2)...
	=======================================================================
	Nuclear Repulsion Energy (a.u.)    :     8.74153482880754
	DF-HF Energy (a.u.)                :   -39.38563004283350
	REF Energy (a.u.)                  :   -39.38563004283350
	Alpha-Alpha Contribution (a.u.)    :    -0.00840553589672
	Alpha-Beta Contribution (a.u.)     :    -0.07297574141496
	Beta-Beta Contribution (a.u.)      :    -0.00429973304312
	Scaled_SS Correlation Energy (a.u.):    -0.00423508964661
	Scaled_OS Correlation Energy (a.u.):    -0.08757088969795
	DF-SCS-MP2 Total Energy (a.u.)     :   -39.47743602217806
	DF-SOS-MP2 Total Energy (a.u.)     :   -39.48049850667294
	DF-SCSN-MP2 Total Energy (a.u.)    :   -39.40799131616762
	DF-MP2 Correlation Energy (a.u.)   :    -0.08568101035480
	DF-MP2 Total Energy (a.u.)         :   -39.47131105318830
	=======================================================================

	Computing unrelaxed response density matrices...

	Forming independent-pairs...
	Number of alpha independent-pairs: 50
	Number of beta independent-pairs : 44
	Computing the generalized Fock matrix (GFM)...
	Computing the orbital gradient...
	Forming effective orbital gradient...
	Solving orbital Z-vector equations...

	            PCG Solver
	   ------------------------------
	Iter     RMS Z Vector        RMS Residual
	----    ---------------    ---------------
	  1         1.68e-01         7.37e-02
	  2         1.27e-01         7.64e-03
	  3         7.15e-03         1.76e-03
	  4         1.26e-03         4.49e-04
	  5         3.53e-04         1.00e-04
	  6         5.77e-05         2.18e-05
	  7         1.27e-05         2.44e-06
	  8         1.15e-06         3.70e-07
	  9         1.85e-07         8.16e-08

	Computing the relaxed PDMs and GFM...

*** tstop() called on adabbott at Thu Apr 12 13:56:25 2018
Module time:
	user time   =       0.15 seconds =       0.00 minutes
	system time =       0.34 seconds =       0.01 minutes
	total time  =          0 seconds =       0.00 minutes
Total time:
	user time   =       0.44 seconds =       0.01 minutes
	system time =       0.85 seconds =       0.01 minutes
	total time  =          1 seconds =       0.02 minutes

*** tstart() called on adabbott
*** at Thu Apr 12 13:56:25 2018

 ==============================================================================
 ==============================================================================
 ==============================================================================

                         DFGRAD
            A General Analytic Gradients Code
               for Density-Fitted Methods
                   by Ugur Bozkaya
              Latest Revision October 7, 2015

 ==============================================================================
 ==============================================================================
 ==============================================================================

	Analytic gradients computation is starting...
	Forming Gamma^tilde...
	Backtransforming OPDM, TPDM, and GFM to the AO basis...
	Computing analytic gradients...

  -Nuclear Gradient:
     Atom            X                  Y                   Z
    ------   -----------------  -----------------  -----------------
       1        0.000000000000     0.000000000000    -1.214749748770
       2        0.000000000000     0.000000000000    -0.546344367527
       3        0.000000000000    -1.563013989643     0.880547058149
       4       -0.000000000000     1.563013989643     0.880547058149

  -Kinetic Gradient:
     Atom            X                  Y                   Z
    ------   -----------------  -----------------  -----------------
       1        0.000000000000     0.000000000000    -0.424057248405
       2       -0.000000000000     0.000000000000    -0.073944288546
       3       -0.000000000000    -0.387977997528     0.249000768475
       4        0.000000000000     0.387977997527     0.249000768476

  -Potential Gradient:
     Atom            X                  Y                   Z
    ------   -----------------  -----------------  -----------------
       1       -0.000000000000    -0.000000000006     2.904834244763
       2        0.000000000000    -0.000000000000     1.813701169866
       3        0.000000000000     3.632821287412    -2.359267707312
       4       -0.000000000000    -3.632821287406    -2.359267707318

  -Overlap Gradient:
     Atom            X                  Y                   Z
    ------   -----------------  -----------------  -----------------
       1        0.000000000000     0.000000000001    -0.196973803810
       2       -0.000000000000     0.000000000000    -0.087535030190
       3       -0.000000000000    -0.185078487743     0.142254417000
       4        0.000000000000     0.185078487742     0.142254417000

  -One-Electron Gradient:
     Atom            X                  Y                   Z
    ------   -----------------  -----------------  -----------------
       1       -0.000000000000    -0.000000000005     2.480776996358
       2        0.000000000000    -0.000000000000     1.739756881320
       3        0.000000000000     3.244843289884    -2.110266938837
       4       -0.000000000000    -3.244843289879    -2.110266938842

  -Two-Electron Gradient:
     Atom            X                  Y                   Z
    ------   -----------------  -----------------  -----------------
       1        0.000000000000     0.000000000004    -1.178879702001
       2       -0.000000000000     0.000000000000    -1.043490556365
       3       -0.000000000000    -1.575008066663     1.111185129181
       4        0.000000000000     1.575008066659     1.111185129186

  -Total Gradient:
     Atom            X                  Y                   Z
    ------   -----------------  -----------------  -----------------
       1       -0.000000000000    -0.000000000000    -0.109826258224
       2        0.000000000000    -0.000000000000     0.062386927238
       3        0.000000000000    -0.078257254165     0.023719665493
       4        0.000000000000     0.078257254165     0.023719665493

*** tstop() called on adabbott at Thu Apr 12 13:56:25 2018
Module time:
	user time   =       0.15 seconds =       0.00 minutes
	system time =       0.54 seconds =       0.01 minutes
	total time  =          0 seconds =       0.00 minutes
Total time:
	user time   =       0.59 seconds =       0.01 minutes
	system time =       1.39 seconds =       0.02 minutes
	total time  =          1 seconds =       0.02 minutes

*** Psi4 exiting successfully. Buy a developer a beer!
