                               Psi4 1.2a1.dev429

  ==> Input File <==

--------------------------------------------------------------------------
# density-fitted hartree fock energies and gradients with 6-31g
molecule h2o {
0 1
O 0.0000000000 0.0000000000 0.0000000000
H 0.0000000000 0.0000000000 0.8000000000
H 0.0000000000 0.4446261863 -1.2216004070
}

set basis 6-31g

gradient('mp2')
--------------------------------------------------------------------------

    Molecular point group: cs
  Charge       = 0
  Multiplicity = 1
  Basis Set: 6-31G
    Blend: 6-31G
  Basis Set: (6-31G AUX)
    Blend: CC-PVDZ-JKFIT

    Orbital Energies (a.u.)
    -----------------------

    Doubly Occupied:

       1Ap   -20.503343     2Ap    -1.301769     3Ap    -0.696677
       1App   -0.454727     4Ap    -0.453949

  @DF-RHF Final Energy:   -75.83822958551147

   => Energetics <=

    Nuclear Repulsion Energy =              8.8038985028635039
    One-Electron Energy =                -122.4633254384285408
    Two-Electron Energy =                  37.8211973500535734
    Total Energy =                        -75.8382295855114705
  Basis Set: (6-31G AUX)
    Blend: CC-PVDZ-RI
    Molecular point group: cs

    Geometry (in Angstrom), charge = 0, multiplicity = 1:

       Center              X                  Y                   Z               Mass
    ------------   -----------------  -----------------  -----------------  -----------------
           O          0.024880141647    -0.023591678060     0.000000000000    15.994914619560
           H          0.024880141647    -0.823591678060     0.000000000000     1.007825032070
           H         -0.419746044653     1.198008728940     0.000000000000     1.007825032070

  Basis Set: 6-31G
    Blend: 6-31G
  Basis Set: (6-31G AUX)
    Blend: CC-PVDZ-JKFIT
  Basis Set: (6-31G AUX)
    Blend: CC-PVDZ-JKFIT
	 Reference Energy          =     -75.8382295855114705 [Eh]
	 Singles Energy            =      -0.0000000000000000 [Eh]
	 Same-Spin Energy          =      -0.0315665483540117 [Eh]
	 Opposite-Spin Energy      =      -0.1003126326845298 [Eh]
	 Correlation Energy        =      -0.1318791810385415 [Eh]
	 Total Energy              =     -75.9701087665500125 [Eh]

	 ================> DF-SCS-MP2 Energies <==================
	-----------------------------------------------------------
	 SCS Same-Spin Scale       =       0.3333333333333333 [-]
	 SCS Opposite-Spin Scale   =       1.2000000000000000 [-]
	 SCS Same-Spin Energy      =      -0.0105221827846706 [Eh]
	 SCS Opposite-Spin Energy  =      -0.1203751592214357 [Eh]
	 SCS Correlation Energy    =      -0.1308973420061063 [Eh]
	 SCS Total Energy          =     -75.9691269275175785 [Eh]
	-----------------------------------------------------------

  -Total Gradient:
     Atom            X                  Y                   Z
    ------   -----------------  -----------------  -----------------
       1       -0.014762589381    -0.450448187667    -0.000000000000
       2        0.040771792789     0.305629259652     0.000000000000
       3       -0.026009203408     0.144818928016    -0.000000000000

*** Psi4 exiting successfully. Buy a developer a beer!
