                               Psi4 1.2a1.dev429

  ==> Input File <==

--------------------------------------------------------------------------
# density-fitted hartree fock energies and gradients with 6-31g
molecule h2o {
0 1
O 0.0000000000 0.0000000000 0.0000000000
H 0.0000000000 0.0000000000 0.9000000000
H 0.0000000000 0.9000000000 0.0000000000
}

set basis 6-31g

gradient('mp2')
--------------------------------------------------------------------------

    Molecular point group: c2v
  Charge       = 0
  Multiplicity = 1
  Basis Set: 6-31G
    Blend: 6-31G
  Basis Set: (6-31G AUX)
    Blend: CC-PVDZ-JKFIT

    Orbital Energies (a.u.)
    -----------------------

    Doubly Occupied:

       1A1   -20.557752     2A1    -1.409191     1B2    -0.711144
       3A1    -0.598174     1B1    -0.510891

  @DF-RHF Final Energy:   -75.96224202259781

   => Energetics <=

    Nuclear Repulsion Energy =              9.8233557000926162
    One-Electron Energy =                -123.9968922480265121
    Two-Electron Energy =                  38.2112945253360863
    Total Energy =                        -75.9622420225978061
  Basis Set: (6-31G AUX)
    Blend: CC-PVDZ-RI
    Molecular point group: c2v

    Geometry (in Angstrom), charge = 0, multiplicity = 1:

       Center              X                  Y                   Z               Mass
    ------------   -----------------  -----------------  -----------------  -----------------
           O         -0.000000000000     0.000000000000    -0.071222189226    15.994914619560
           H          0.000000000000    -0.636396103068     0.565173913842     1.007825032070
           H         -0.000000000000     0.636396103068     0.565173913842     1.007825032070

  Basis Set: 6-31G
    Blend: 6-31G
  Basis Set: (6-31G AUX)
    Blend: CC-PVDZ-JKFIT
  Basis Set: (6-31G AUX)
    Blend: CC-PVDZ-JKFIT
	 Reference Energy          =     -75.9622420225978061 [Eh]
	 Singles Energy            =      -0.0000000000000000 [Eh]
	 Same-Spin Energy          =      -0.0289121937564990 [Eh]
	 Opposite-Spin Energy      =      -0.0956602774811394 [Eh]
	 Correlation Energy        =      -0.1245724712376384 [Eh]
	 Total Energy              =     -76.0868144938354476 [Eh]

	 ================> DF-SCS-MP2 Energies <==================
	-----------------------------------------------------------
	 SCS Same-Spin Scale       =       0.3333333333333333 [-]
	 SCS Opposite-Spin Scale   =       1.2000000000000000 [-]
	 SCS Same-Spin Energy      =      -0.0096373979188330 [Eh]
	 SCS Opposite-Spin Energy  =      -0.1147923329773673 [Eh]
	 SCS Correlation Energy    =      -0.1244297308962003 [Eh]
	 SCS Total Energy          =     -76.0866717534940022 [Eh]
	-----------------------------------------------------------

  -Total Gradient:
     Atom            X                  Y                   Z
    ------   -----------------  -----------------  -----------------
       1       -0.000000000000    -0.000000000003     0.085971071809
       2        0.000000000000     0.111253485105    -0.042985535906
       3        0.000000000000    -0.111253485102    -0.042985535903

*** Psi4 exiting successfully. Buy a developer a beer!
