                               Psi4 1.2a1.dev429

  ==> Input File <==

--------------------------------------------------------------------------
# density-fitted hartree fock energies and gradients with 6-31g
molecule h2o {
0 1
O 0.0000000000 0.0000000000 0.0000000000
H 0.0000000000 0.0000000000 1.0000000000
H 0.0000000000 0.8999026536 -1.0724622204
}

set basis 6-31g

gradient('mp2')
--------------------------------------------------------------------------

    Molecular point group: cs
  Charge       = 0
  Multiplicity = 1
  Basis Set: 6-31G
    Blend: 6-31G
  Basis Set: (6-31G AUX)
    Blend: CC-PVDZ-JKFIT

    Orbital Energies (a.u.)
    -----------------------

    Doubly Occupied:

       1Ap   -20.555070     2Ap    -1.248519     3Ap    -0.625543
       1App   -0.465514     4Ap    -0.458374

  @DF-RHF Final Energy:   -75.86568973557017

   => Energetics <=

    Nuclear Repulsion Energy =              7.4914979916479671
    One-Electron Energy =                -120.0083381449396143
    Two-Electron Energy =                  36.6511504177214817
    Total Energy =                        -75.8656897355701716
  Basis Set: (6-31G AUX)
    Blend: CC-PVDZ-RI
    Molecular point group: cs

    Geometry (in Angstrom), charge = 0, multiplicity = 1:

       Center              X                  Y                   Z               Mass
    ------------   -----------------  -----------------  -----------------  -----------------
           O          0.050356245718    -0.004054800107     0.000000000000    15.994914619560
           H          0.050356245718    -1.004054800107     0.000000000000     1.007825032070
           H         -0.849546407882     1.068407420293     0.000000000000     1.007825032070

  Basis Set: 6-31G
    Blend: 6-31G
  Basis Set: (6-31G AUX)
    Blend: CC-PVDZ-JKFIT
  Basis Set: (6-31G AUX)
    Blend: CC-PVDZ-JKFIT
	 Reference Energy          =     -75.8656897355701716 [Eh]
	 Singles Energy            =      -0.0000000000000000 [Eh]
	 Same-Spin Energy          =      -0.0339970625622034 [Eh]
	 Opposite-Spin Energy      =      -0.1128728675047752 [Eh]
	 Correlation Energy        =      -0.1468699300669786 [Eh]
	 Total Energy              =     -76.0125596656371556 [Eh]

	 ================> DF-SCS-MP2 Energies <==================
	-----------------------------------------------------------
	 SCS Same-Spin Scale       =       0.3333333333333333 [-]
	 SCS Opposite-Spin Scale   =       1.2000000000000000 [-]
	 SCS Same-Spin Energy      =      -0.0113323541874011 [Eh]
	 SCS Opposite-Spin Energy  =      -0.1354474410057302 [Eh]
	 SCS Correlation Energy    =      -0.1467797951931313 [Eh]
	 SCS Total Energy          =     -76.0124695307632976 [Eh]
	-----------------------------------------------------------

  -Total Gradient:
     Atom            X                  Y                   Z
    ------   -----------------  -----------------  -----------------
       1        0.005325677267    -0.088366144322    -0.000000000000
       2        0.044739446098    -0.021015019448     0.000000000000
       3       -0.050065123365     0.109381163770     0.000000000000

*** Psi4 exiting successfully. Buy a developer a beer!
