                               Psi4 1.2a1.dev429

  ==> Input File <==

--------------------------------------------------------------------------
# density-fitted hartree fock energies and gradients with 6-31g
molecule h20 {
0 1
O 0.0000000000 0.0000000000 0.0000000000
H 0.0000000000 0.0000000000 0.7000000000
H 0.0000000000 1.2802500789 -0.2257426310
}

set basis 6-31g

gradient('hf')
--------------------------------------------------------------------------

    Molecular point group: cs
  Charge       = 0
  Multiplicity = 1
  Basis Set: 6-31G
    Blend: 6-31G
  Basis Set: (6-31G AUX)
    Blend: CC-PVDZ-JKFIT

    Orbital Energies (a.u.)
    -----------------------

    Doubly Occupied:

       1Ap   -20.566290     2Ap    -1.426070     3Ap    -0.704422
       4Ap    -0.538668     1App   -0.509202

  @DF-RHF Final Energy:   -75.78996152198943

   => Energetics <=

    Nuclear Repulsion Energy =              9.6391611135056294
    One-Electron Energy =                -123.3689424575553346
    Two-Electron Energy =                  37.9398198220602865
    Total Energy =                        -75.7899615219894258
    Molecular point group: cs

    Geometry (in Angstrom), charge = 0, multiplicity = 1:

       Center              X                  Y                   Z               Mass
    ------------   -----------------  -----------------  -----------------  -----------------
           O          0.071639512669     0.026538226675     0.000000000000    15.994914619560
           H          0.071639512669    -0.673461773325     0.000000000000     1.007825032070
           H         -1.208610566231     0.252280857675     0.000000000000     1.007825032070

  Basis Set: 6-31G
    Blend: 6-31G
  Basis Set: (6-31G AUX)
    Blend: CC-PVDZ-JKFIT

  -Total Gradient:
     Atom            X                  Y                   Z
    ------   -----------------  -----------------  -----------------
       1        0.146691725004    -0.763313390975     0.000000000000
       2       -0.014898600375     0.748220788644     0.000000000000
       3       -0.131793124630     0.015092602331     0.000000000000

*** Psi4 exiting successfully. Buy a developer a beer!
