                               Psi4 1.2a1.dev429

  ==> Input File <==

--------------------------------------------------------------------------
# density-fitted hartree fock energies and gradients with 6-31g
molecule h20 {
0 1
O 0.0000000000 0.0000000000 0.0000000000
H 0.0000000000 0.0000000000 0.7000000000
H 0.0000000000 0.2083778132 -1.1817693036
}

set basis 6-31g

gradient('hf')
--------------------------------------------------------------------------

    Molecular point group: cs
  Charge       = 0
  Multiplicity = 1
  Basis Set: 6-31G
    Blend: 6-31G
  Basis Set: (6-31G AUX)
    Blend: CC-PVDZ-JKFIT

    Orbital Energies (a.u.)
    -----------------------

    Doubly Occupied:

       1Ap   -20.492008     2Ap    -1.356628     3Ap    -0.757541
       4Ap    -0.465532     1App   -0.465163

  @DF-RHF Final Energy:   -75.77197516225290

   => Energetics <=

    Nuclear Repulsion Energy =              9.8550917147222048
    One-Electron Energy =                -124.1803910098012125
    Two-Electron Energy =                  38.5533241328261056
    Total Energy =                        -75.7719751622529003
    Molecular point group: cs

    Geometry (in Angstrom), charge = 0, multiplicity = 1:

       Center              X                  Y                   Z               Mass
    ------------   -----------------  -----------------  -----------------  -----------------
           O          0.011660288279    -0.026958575279     0.000000000000    15.994914619560
           H          0.011660288279    -0.726958575279     0.000000000000     1.007825032070
           H         -0.196717524921     1.154810728321     0.000000000000     1.007825032070

  Basis Set: 6-31G
    Blend: 6-31G
  Basis Set: (6-31G AUX)
    Blend: CC-PVDZ-JKFIT

  -Total Gradient:
     Atom            X                  Y                   Z
    ------   -----------------  -----------------  -----------------
       1       -0.001396215415    -0.889860664207     0.000000000000
       2        0.019360588135     0.722941953269     0.000000000000
       3       -0.017964372721     0.166918710938     0.000000000000

*** Psi4 exiting successfully. Buy a developer a beer!
