                               Psi4 1.2a1.dev429

  ==> Input File <==

--------------------------------------------------------------------------
# density-fitted hartree fock energies and gradients with 6-31g
molecule h20 {
0 1
O 0.0000000000 0.0000000000 0.0000000000
H 0.0000000000 0.0000000000 1.3000000000
H 0.0000000000 1.3787308542 -0.2431074487
}

set basis 6-31g

gradient('hf')
--------------------------------------------------------------------------

    Molecular point group: cs
  Charge       = 0
  Multiplicity = 1
  Basis Set: 6-31G
    Blend: 6-31G
  Basis Set: (6-31G AUX)
    Blend: CC-PVDZ-JKFIT

    Orbital Energies (a.u.)
    -----------------------

    Doubly Occupied:

       1Ap   -20.632180     2Ap    -1.237499     3Ap    -0.546859
       4Ap    -0.504475     1App   -0.500290

  @DF-RHF Final Energy:   -75.83926533615133

   => Energetics <=

    Nuclear Repulsion Energy =              6.5360702391605026
    One-Electron Energy =                -117.9080656103878084
    Two-Electron Energy =                  35.5327300350759714
    Total Energy =                        -75.8392653361513283
    Molecular point group: cs

    Geometry (in Angstrom), charge = 0, multiplicity = 1:

       Center              X                  Y                   Z               Mass
    ------------   -----------------  -----------------  -----------------  -----------------
           O          0.077150244412     0.059140997971     0.000000000000    15.994914619560
           H          0.077150244412    -1.240859002029     0.000000000000     1.007825032070
           H         -1.301580609788     0.302248446671     0.000000000000     1.007825032070

  Basis Set: 6-31G
    Blend: 6-31G
  Basis Set: (6-31G AUX)
    Blend: CC-PVDZ-JKFIT

  -Total Gradient:
     Atom            X                  Y                   Z
    ------   -----------------  -----------------  -----------------
       1        0.124565145087     0.103153917134     0.000000000000
       2        0.002205325186    -0.127586364327     0.000000000000
       3       -0.126770470273     0.024432447193     0.000000000000

*** Psi4 exiting successfully. Buy a developer a beer!
