                               Psi4 1.2a1.dev429

  ==> Input File <==

--------------------------------------------------------------------------
# density-fitted hartree fock energies and gradients with 6-31g
molecule h2o {
0 1
O 0.0000000000 0.0000000000 0.0000000000
H 0.0000000000 0.0000000000 1.5000000000
H 0.0000000000 1.0392304845 -0.6000000000
}

set basis 6-31g

gradient('mp2')
--------------------------------------------------------------------------

    Molecular point group: cs
  Charge       = 0
  Multiplicity = 1
  Basis Set: 6-31G
    Blend: 6-31G
  Basis Set: (6-31G AUX)
    Blend: CC-PVDZ-JKFIT

    Orbital Energies (a.u.)
    -----------------------

    Doubly Occupied:

       1Ap   -20.609548     2Ap    -1.228454     3Ap    -0.566491
       1App   -0.486351     4Ap    -0.469743

  @DF-RHF Final Energy:   -75.82845413914188

   => Energetics <=

    Nuclear Repulsion Energy =              6.5759738322518606
    One-Electron Energy =                -118.0876814658120821
    Two-Electron Energy =                  35.6832534944183379
    Total Energy =                        -75.8284541391418827
  Basis Set: (6-31G AUX)
    Blend: CC-PVDZ-RI
    Molecular point group: cs

    Geometry (in Angstrom), charge = 0, multiplicity = 1:

       Center              X                  Y                   Z               Mass
    ------------   -----------------  -----------------  -----------------  -----------------
           O          0.058152673987     0.050361692973     0.000000000000    15.994914619560
           H          0.058152673987    -1.449638307027     0.000000000000     1.007825032070
           H         -0.981077810513     0.650361692973     0.000000000000     1.007825032070

  Basis Set: 6-31G
    Blend: 6-31G
  Basis Set: (6-31G AUX)
    Blend: CC-PVDZ-JKFIT
  Basis Set: (6-31G AUX)
    Blend: CC-PVDZ-JKFIT
	 Reference Energy          =     -75.8284541391418827 [Eh]
	 Singles Energy            =      -0.0000000000000000 [Eh]
	 Same-Spin Energy          =      -0.0368086590046704 [Eh]
	 Opposite-Spin Energy      =      -0.1278903390446928 [Eh]
	 Correlation Energy        =      -0.1646989980493632 [Eh]
	 Total Energy              =     -75.9931531371912428 [Eh]

	 ================> DF-SCS-MP2 Energies <==================
	-----------------------------------------------------------
	 SCS Same-Spin Scale       =       0.3333333333333333 [-]
	 SCS Opposite-Spin Scale   =       1.2000000000000000 [-]
	 SCS Same-Spin Energy      =      -0.0122695530015568 [Eh]
	 SCS Opposite-Spin Energy  =      -0.1534684068536314 [Eh]
	 SCS Correlation Energy    =      -0.1657379598551882 [Eh]
	 SCS Total Energy          =     -75.9941920989970754 [Eh]
	-----------------------------------------------------------

  -Total Gradient:
     Atom            X                  Y                   Z
    ------   -----------------  -----------------  -----------------
       1        0.045317667695     0.031697703580     0.000000000000
       2        0.020636652981    -0.099562892617    -0.000000000000
       3       -0.065954320675     0.067865189037     0.000000000000

*** Psi4 exiting successfully. Buy a developer a beer!
