                               Psi4 1.2a1.dev429

  ==> Input File <==

--------------------------------------------------------------------------
# density-fitted hartree fock energies and gradients with 6-31g
molecule h2o {
0 1
O 0.0000000000 0.0000000000 0.0000000000
H 0.0000000000 0.0000000000 0.9000000000
H 0.0000000000 0.8660254038 -0.5000000000
}

set basis 6-31g

gradient('mp2')
--------------------------------------------------------------------------

    Molecular point group: cs
  Charge       = 0
  Multiplicity = 1
  Basis Set: 6-31G
    Blend: 6-31G
  Basis Set: (6-31G AUX)
    Blend: CC-PVDZ-JKFIT

    Orbital Energies (a.u.)
    -----------------------

    Doubly Occupied:

       1Ap   -20.546246     2Ap    -1.345766     3Ap    -0.738538
       4Ap    -0.532071     1App   -0.493942

  @DF-RHF Final Energy:   -75.97807757925031

   => Energetics <=

    Nuclear Repulsion Energy =              9.2586673399555703
    One-Electron Energy =                -123.1603655882044706
    Two-Electron Energy =                  37.9236206689986020
    Total Energy =                        -75.9780775792503107
  Basis Set: (6-31G AUX)
    Blend: CC-PVDZ-RI
    Molecular point group: cs

    Geometry (in Angstrom), charge = 0, multiplicity = 1:

       Center              X                  Y                   Z               Mass
    ------------   -----------------  -----------------  -----------------  -----------------
           O          0.048460561658     0.022382974654     0.000000000000    15.994914619560
           H          0.048460561658    -0.877617025346     0.000000000000     1.007825032070
           H         -0.817564842142     0.522382974654     0.000000000000     1.007825032070

  Basis Set: 6-31G
    Blend: 6-31G
  Basis Set: (6-31G AUX)
    Blend: CC-PVDZ-JKFIT
  Basis Set: (6-31G AUX)
    Blend: CC-PVDZ-JKFIT
	 Reference Energy          =     -75.9780775792503107 [Eh]
	 Singles Energy            =      -0.0000000000000000 [Eh]
	 Same-Spin Energy          =      -0.0301320574908249 [Eh]
	 Opposite-Spin Energy      =      -0.0972046748950340 [Eh]
	 Correlation Energy        =      -0.1273367323858589 [Eh]
	 Total Energy              =     -76.1054143116361672 [Eh]

	 ================> DF-SCS-MP2 Energies <==================
	-----------------------------------------------------------
	 SCS Same-Spin Scale       =       0.3333333333333333 [-]
	 SCS Opposite-Spin Scale   =       1.2000000000000000 [-]
	 SCS Same-Spin Energy      =      -0.0100440191636083 [Eh]
	 SCS Opposite-Spin Energy  =      -0.1166456098740408 [Eh]
	 SCS Correlation Energy    =      -0.1266896290376491 [Eh]
	 SCS Total Energy          =     -76.1047672082879529 [Eh]
	-----------------------------------------------------------

  -Total Gradient:
     Atom            X                  Y                   Z
    ------   -----------------  -----------------  -----------------
       1        0.006394377575    -0.114035448521    -0.000000000000
       2        0.015032988421     0.086041613685    -0.000000000000
       3       -0.021427365997     0.027993834836     0.000000000000

*** Psi4 exiting successfully. Buy a developer a beer!
