                               Psi4 1.2a1.dev429

  ==> Input File <==

--------------------------------------------------------------------------
# density-fitted hartree fock energies and gradients with 6-31g
molecule h2o {
0 1
O 0.0000000000 0.0000000000 0.0000000000
H 0.0000000000 0.0000000000 1.5000000000
H 0.0000000000 1.1276311449 -0.4104241720
}

set basis 6-31g

gradient('mp2')
--------------------------------------------------------------------------

    Molecular point group: cs
  Charge       = 0
  Multiplicity = 1
  Basis Set: 6-31G
    Blend: 6-31G
  Basis Set: (6-31G AUX)
    Blend: CC-PVDZ-JKFIT

    Orbital Energies (a.u.)
    -----------------------

    Doubly Occupied:

       1Ap   -20.620504     2Ap    -1.236756     3Ap    -0.565662
       1App   -0.494162     4Ap    -0.481069

  @DF-RHF Final Energy:   -75.83537226227050

   => Energetics <=

    Nuclear Repulsion Energy =              6.5886671671050046
    One-Electron Energy =                -118.0517733652292662
    Two-Electron Energy =                  35.6277339358537617
    Total Energy =                        -75.8353722622705106
  Basis Set: (6-31G AUX)
    Blend: CC-PVDZ-RI
    Molecular point group: cs

    Geometry (in Angstrom), charge = 0, multiplicity = 1:

       Center              X                  Y                   Z               Mass
    ------------   -----------------  -----------------  -----------------  -----------------
           O          0.063099348340     0.060969870356     0.000000000000    15.994914619560
           H          0.063099348340    -1.439030129644     0.000000000000     1.007825032070
           H         -1.064531796560     0.471394042356     0.000000000000     1.007825032070

  Basis Set: 6-31G
    Blend: 6-31G
  Basis Set: (6-31G AUX)
    Blend: CC-PVDZ-JKFIT
  Basis Set: (6-31G AUX)
    Blend: CC-PVDZ-JKFIT
	 Reference Energy          =     -75.8353722622704964 [Eh]
	 Singles Energy            =      -0.0000000000000000 [Eh]
	 Same-Spin Energy          =      -0.0371200385219354 [Eh]
	 Opposite-Spin Energy      =      -0.1291761257873014 [Eh]
	 Correlation Energy        =      -0.1662961643092368 [Eh]
	 Total Energy              =     -76.0016684265797267 [Eh]

	 ================> DF-SCS-MP2 Energies <==================
	-----------------------------------------------------------
	 SCS Same-Spin Scale       =       0.3333333333333333 [-]
	 SCS Opposite-Spin Scale   =       1.2000000000000000 [-]
	 SCS Same-Spin Energy      =      -0.0123733461739785 [Eh]
	 SCS Opposite-Spin Energy  =      -0.1550113509447616 [Eh]
	 SCS Correlation Energy    =      -0.1673846971187401 [Eh]
	 SCS Total Energy          =     -76.0027569593892309 [Eh]
	-----------------------------------------------------------

  -Total Gradient:
     Atom            X                  Y                   Z
    ------   -----------------  -----------------  -----------------
       1        0.064228550363     0.052718884952     0.000000000000
       2        0.013691175569    -0.099291652947    -0.000000000000
       3       -0.077919725932     0.046572767995     0.000000000000

*** Psi4 exiting successfully. Buy a developer a beer!
