                               Psi4 1.2a1.dev429

  ==> Input File <==

--------------------------------------------------------------------------
# density-fitted hartree fock energies and gradients with 6-31g
molecule h20 {
0 1
O 0.0000000000 0.0000000000 0.0000000000
H 0.0000000000 0.0000000000 0.8000000000
H 0.0000000000 1.1817693036 -0.2083778132
}

set basis 6-31g

gradient('hf')
--------------------------------------------------------------------------

    Molecular point group: cs
  Charge       = 0
  Multiplicity = 1
  Basis Set: 6-31G
    Blend: 6-31G
  Basis Set: (6-31G AUX)
    Blend: CC-PVDZ-JKFIT

    Orbital Energies (a.u.)
    -----------------------

    Doubly Occupied:

       1Ap   -20.568841     2Ap    -1.378474     3Ap    -0.692852
       4Ap    -0.550397     1App   -0.505054

  @DF-RHF Final Energy:   -75.90874014834988

   => Energetics <=

    Nuclear Repulsion Energy =              9.1602526352977502
    One-Electron Energy =                -122.7467467166618604
    Two-Electron Energy =                  37.6777539330142304
    Total Energy =                        -75.9087401483498780
    Molecular point group: cs

    Geometry (in Angstrom), charge = 0, multiplicity = 1:

       Center              X                  Y                   Z               Mass
    ------------   -----------------  -----------------  -----------------  -----------------
           O          0.066128780925     0.033105661030     0.000000000000    15.994914619560
           H          0.066128780925    -0.766894338970     0.000000000000     1.007825032070
           H         -1.115640522675     0.241483474230     0.000000000000     1.007825032070

  Basis Set: 6-31G
    Blend: 6-31G
  Basis Set: (6-31G AUX)
    Blend: CC-PVDZ-JKFIT

  -Total Gradient:
     Atom            X                  Y                   Z
    ------   -----------------  -----------------  -----------------
       1        0.138302562062    -0.312731206867     0.000000000000
       2       -0.016779105766     0.302661977196     0.000000000000
       3       -0.121523456295     0.010069229671     0.000000000000

*** Psi4 exiting successfully. Buy a developer a beer!
