                               Psi4 1.2a1.dev429

  ==> Input File <==

--------------------------------------------------------------------------
# density-fitted MP2 energies and gradients with 6-31g

molecule h20 {
-1 1
C 0.0000000000 0.0000000000 0.0000000000
X 0.0000000000 0.0000000000 1.0000000000
H 0.0000000000 1.0609129689 -0.3861407418
H 0.9187775822 -0.5304564844 -0.3861407418
H -0.9187775822 -0.5304564844 -0.3861407418
}

set reference rhf
set basis 6-31g

gradient('mp2')
--------------------------------------------------------------------------

    Molecular point group: cs
  Charge       = -1
  Multiplicity = 1
  Basis Set: 6-31G
    Blend: 6-31G
  Basis Set: (6-31G AUX)
    Blend: CC-PVDZ-JKFIT

    Orbital Energies (a.u.)
    -----------------------

    Doubly Occupied:

       1Ap   -10.872013     2Ap    -0.564090     3Ap    -0.206411
       1App   -0.206411     4Ap     0.024441

  @DF-RHF Final Energy:   -39.44735048399104

   => Energetics <=

    Nuclear Repulsion Energy =              9.3007745454118673
    One-Electron Energy =                 -73.8472819695164446
    Two-Electron Energy =                  25.0991569401135344
    Total Energy =                        -39.4473504839910447
  Basis Set: (6-31G AUX)
    Blend: CC-PVDZ-RI
    Molecular point group: cs

    Geometry (in Angstrom), charge = -1, multiplicity = 1:

       Center              X                  Y                   Z               Mass
    ------------   -----------------  -----------------  -----------------  -----------------
           C          0.000000000003     0.077710843130     0.000000000000    12.000000000000
           H         -0.530456484428    -0.308429898670     0.918777582232     1.007825032070
           H         -0.530456484428    -0.308429898670    -0.918777582232     1.007825032070
           H          1.060912968816    -0.308429898670     0.000000000000     1.007825032070

  Basis Set: 6-31G
    Blend: 6-31G
  Basis Set: (6-31G AUX)
    Blend: CC-PVDZ-JKFIT
  Basis Set: (6-31G AUX)
    Blend: CC-PVDZ-JKFIT
	 Reference Energy          =     -39.4473504839910447 [Eh]
	 Singles Energy            =      -0.0000000000000000 [Eh]
	 Same-Spin Energy          =      -0.0174690745642541 [Eh]
	 Opposite-Spin Energy      =      -0.0798951983320677 [Eh]
	 Correlation Energy        =      -0.0973642728963219 [Eh]
	 Total Energy              =     -39.5447147568873660 [Eh]

	 ================> DF-SCS-MP2 Energies <==================
	-----------------------------------------------------------
	 SCS Same-Spin Scale       =       0.3333333333333333 [-]
	 SCS Opposite-Spin Scale   =       1.2000000000000000 [-]
	 SCS Same-Spin Energy      =      -0.0058230248547514 [Eh]
	 SCS Opposite-Spin Energy  =      -0.0958742379984813 [Eh]
	 SCS Correlation Energy    =      -0.1016972628532327 [Eh]
	 SCS Total Energy          =     -39.5490477468442805 [Eh]
	-----------------------------------------------------------

  -Total Gradient:
     Atom            X                  Y                   Z
    ------   -----------------  -----------------  -----------------
       1        0.000000000019    -0.008805494342     0.000000000001
       2       -0.003938960965     0.002935164776     0.006822480528
       3       -0.003938960963     0.002935164778    -0.006822480528
       4        0.007877921909     0.002935164788    -0.000000000001

*** Psi4 exiting successfully. Buy a developer a beer!
