                               Psi4 1.2a1.dev429

  ==> Input File <==

--------------------------------------------------------------------------
# density-fitted hartree fock energies and gradients with 6-31g
molecule h20 {
0 1
O 0.0000000000 0.0000000000 0.0000000000
O 0.0000000000 0.0000000000 1.3797979798
}

set basis 6-31g

gradient('hf')
--------------------------------------------------------------------------

    Molecular point group: d2h
  Charge       = 0
  Multiplicity = 1
  Basis Set: 6-31G
    Blend: 6-31G
  Basis Set: (6-31G AUX)
    Blend: CC-PVDZ-JKFIT

    Orbital Energies (a.u.)
    -----------------------

    Doubly Occupied:

       1Ag   -20.783902     1B1u  -20.783412     2Ag    -1.554217
       2B1u   -1.162533     1B2u   -0.731657     3Ag    -0.678130
       1B3u   -0.589683     1B3g   -0.538441

  @DF-RHF Final Energy:  -149.42298224803977

   => Energetics <=

    Nuclear Repulsion Energy =             24.5451449020595192
    One-Electron Energy =                -254.2923014142297973
    Two-Electron Energy =                  80.3241742641305052
    Total Energy =                       -149.4229822480397729
    Molecular point group: d2h

    Geometry (in Angstrom), charge = 0, multiplicity = 1:

       Center              X                  Y                   Z               Mass
    ------------   -----------------  -----------------  -----------------  -----------------
           O          0.000000000000     0.000000000000    -0.689898989900    15.994914619560
           O          0.000000000000     0.000000000000     0.689898989900    15.994914619560

  Basis Set: 6-31G
    Blend: 6-31G
  Basis Set: (6-31G AUX)
    Blend: CC-PVDZ-JKFIT

  -Total Gradient:
     Atom            X                  Y                   Z
    ------   -----------------  -----------------  -----------------
       1        0.000000000000     0.000000000000    -0.178610285416
       2       -0.000000000000     0.000000000000     0.178610285416

*** Psi4 exiting successfully. Buy a developer a beer!
