                               Psi4 1.2a1.dev429

  ==> Input File <==

--------------------------------------------------------------------------
# density-fitted hartree fock energies and gradients with 6-31g
molecule h2o {
0 1
O 0.0000000000 0.0000000000 0.0000000000
H 0.0000000000 0.0000000000 1.5000000000
H 0.0000000000 0.6427876097 -0.7660444431
}

set basis 6-31g

gradient('mp2')
--------------------------------------------------------------------------

    Molecular point group: cs
  Charge       = 0
  Multiplicity = 1
  Basis Set: 6-31G
    Blend: 6-31G
  Basis Set: (6-31G AUX)
    Blend: CC-PVDZ-JKFIT

    Orbital Energies (a.u.)
    -----------------------

    Doubly Occupied:

       1Ap   -20.559745     2Ap    -1.245186     3Ap    -0.611638
       1App   -0.465599     4Ap    -0.448431

  @DF-RHF Final Energy:   -75.83968156180744

   => Energetics <=

    Nuclear Repulsion Energy =              7.2803571139317649
    One-Electron Energy =                -119.5788802077740058
    Two-Electron Energy =                  36.4588415320348034
    Total Energy =                        -75.8396815618074243
  Basis Set: (6-31G AUX)
    Blend: CC-PVDZ-RI
    Molecular point group: cs

    Geometry (in Angstrom), charge = 0, multiplicity = 1:

       Center              X                  Y                   Z               Mass
    ------------   -----------------  -----------------  -----------------  -----------------
           O          0.035968746940     0.041070271569     0.000000000000    15.994914619560
           H          0.035968746940    -1.458929728431     0.000000000000     1.007825032070
           H         -0.606818862760     0.807114714669     0.000000000000     1.007825032070

  Basis Set: 6-31G
    Blend: 6-31G
  Basis Set: (6-31G AUX)
    Blend: CC-PVDZ-JKFIT
  Basis Set: (6-31G AUX)
    Blend: CC-PVDZ-JKFIT
	 Reference Energy          =     -75.8396815618074385 [Eh]
	 Singles Energy            =      -0.0000000000000000 [Eh]
	 Same-Spin Energy          =      -0.0345932124837552 [Eh]
	 Opposite-Spin Energy      =      -0.1172757324996286 [Eh]
	 Correlation Energy        =      -0.1518689449833838 [Eh]
	 Total Energy              =     -75.9915505067908157 [Eh]

	 ================> DF-SCS-MP2 Energies <==================
	-----------------------------------------------------------
	 SCS Same-Spin Scale       =       0.3333333333333333 [-]
	 SCS Opposite-Spin Scale   =       1.2000000000000000 [-]
	 SCS Same-Spin Energy      =      -0.0115310708279184 [Eh]
	 SCS Opposite-Spin Energy  =      -0.1407308789995543 [Eh]
	 SCS Correlation Energy    =      -0.1522619498274727 [Eh]
	 SCS Total Energy          =     -75.9919435116349149 [Eh]
	-----------------------------------------------------------

  -Total Gradient:
     Atom            X                  Y                   Z
    ------   -----------------  -----------------  -----------------
       1       -0.054950187145     0.063550845853    -0.000000000000
       2        0.030572267700    -0.105841380319     0.000000000000
       3        0.024377919444     0.042290534466     0.000000000000

*** Psi4 exiting successfully. Buy a developer a beer!
