                               Psi4 1.3.1 release

  ==> Input File <==

--------------------------------------------------------------------------
# density fitted hartree fock
molecule h2o {
0 1
H 0.0000000000 0.0000000000 1.1000000000
H 0.0000000000 0.9526279442 -0.5500000000
O 0.0000000000 0.0000000000 0.0000000000
}

set basis 6-31g
energy('hf')

--------------------------------------------------------------------------

    Molecular point group: c2v

    Geometry (in Angstrom), charge = 0, multiplicity = 1:

       Center              X                  Y                   Z               Mass
    ------------   -----------------  -----------------  -----------------  -----------------
         H            0.000000000000    -0.952627944172     0.488446819706     1.007825032230
         H           -0.000000000000     0.952627944172     0.488446819706     1.007825032230
         O            0.000000000000     0.000000000000    -0.061553180310    15.994914619570

  Charge       = 0
  Multiplicity = 1
  Basis Set: 6-31G
    Blend: 6-31G
  Basis Set: (6-31G AUX)
    Blend: CC-PVDZ-JKFIT

    Orbital Energies [Eh]
    ---------------------

    Doubly Occupied:

       1A1   -20.572587     2A1    -1.278432     1B2    -0.654081
       3A1    -0.511211     1B1    -0.485699

  @DF-RHF Final Energy:   -75.94716522634391

   => Energetics <=

    Nuclear Repulsion Energy =              7.9748690687478661
    One-Electron Energy =                -120.8400355566194264
    Two-Electron Energy =                  36.9180012615276496
    Total Energy =                        -75.9471652263439125

  Dipole Moment: [D]
     X:     0.0000      Y:     0.0000      Z:     2.3633     Total:     2.3633

*** Psi4 exiting successfully. Buy a developer a beer!
