                               Psi4 1.2a1.dev429

  ==> Input File <==

--------------------------------------------------------------------------
# density-fitted hartree fock energies and gradients with 6-31g
molecule h20 {
0 1
O 0.0000000000 0.0000000000 0.0000000000
H 0.0000000000 0.0000000000 0.9000000000
H 0.0000000000 0.2394141003 -0.6577848346
}

set basis 6-31g

gradient('hf')
--------------------------------------------------------------------------

    Molecular point group: cs
  Charge       = 0
  Multiplicity = 1
  Basis Set: 6-31G
    Blend: 6-31G
  Basis Set: (6-31G AUX)
    Blend: CC-PVDZ-JKFIT

    Orbital Energies (a.u.)
    -----------------------

    Doubly Occupied:

       1Ap   -20.499638     2Ap    -1.409445     3Ap    -0.888251
       4Ap    -0.503461     1App   -0.498476

  @DF-RHF Final Energy:   -75.83639632199154

   => Energetics <=

    Nuclear Repulsion Energy =             11.0872932782796720
    One-Electron Energy =                -126.2488375631107118
    Two-Electron Energy =                  39.3251479628394947
    Total Energy =                        -75.8363963219915433
    Molecular point group: cs

    Geometry (in Angstrom), charge = 0, multiplicity = 1:

       Center              X                  Y                   Z               Mass
    ------------   -----------------  -----------------  -----------------  -----------------
           O          0.013396999347     0.013553739770     0.000000000000    15.994914619560
           H          0.013396999347    -0.886446260230     0.000000000000     1.007825032070
           H         -0.226017100953     0.671338574370     0.000000000000     1.007825032070

  Basis Set: 6-31G
    Blend: 6-31G
  Basis Set: (6-31G AUX)
    Blend: CC-PVDZ-JKFIT

  -Total Gradient:
     Atom            X                  Y                   Z
    ------   -----------------  -----------------  -----------------
       1       -0.283240820425     0.631005046210     0.000000000000
       2        0.018397477566     0.027486681543     0.000000000000
       3        0.264843342860    -0.658491727752     0.000000000000

*** Psi4 exiting successfully. Buy a developer a beer!
