                               Psi4 1.2.1 release

  ==> Input File <==

--------------------------------------------------------------------------
# density fitted hartree fock
molecule h2o {
0 1
H 0.0000000000 0.0000000000 1.1125000000
H 0.0000000000 0.7852976026 -0.3252809175
O 0.0000000000 0.0000000000 0.0000000000
}

set basis 6-31g
energy('hf')

--------------------------------------------------------------------------

    Molecular point group: cs

    Geometry (in Angstrom), charge = 0, multiplicity = 1:

       Center              X                  Y                   Z               Mass
    ------------   -----------------  -----------------  -----------------  -----------------
         H            0.043943240838    -1.068449238072     0.000000000000     1.007825032070
         H           -0.741354361762     0.369331679428     0.000000000000     1.007825032070
         O            0.043943240838     0.044050761928     0.000000000000    15.994914619560

  Charge       = 0
  Multiplicity = 1
  Basis Set: 6-31G
    Blend: 6-31G
  Basis Set: (6-31G AUX)
    Blend: CC-PVDZ-JKFIT

    Orbital Energies [Eh]
    ---------------------

    Doubly Occupied:

       1Ap   -20.556875     2Ap    -1.352832     3Ap    -0.712087
       4Ap    -0.538381     1App   -0.497093

  @DF-RHF Final Energy:   -75.95146280993346

   => Energetics <=

    Nuclear Repulsion Energy =              9.1088217354946295
    One-Electron Energy =                -122.8060324262648351
    Two-Electron Energy =                  37.7457478808367455
    Total Energy =                        -75.9514628099334601

  Dipole Moment: [D]
     X:    -1.9722      Y:    -1.5308      Z:     0.0000     Total:     2.4966

*** Psi4 exiting successfully. Buy a developer a beer!
