                               Psi4 1.2a1.dev429

  ==> Input File <==

--------------------------------------------------------------------------
# density-fitted hartree fock energies and gradients with 6-31g
molecule h20 {
0 1
O 0.0000000000 0.0000000000 0.0000000000
H 0.0000000000 0.0000000000 1.2000000000
H 0.0000000000 0.7000000000 0.0000000000
}

set basis 6-31g

gradient('hf')
--------------------------------------------------------------------------

    Molecular point group: cs
  Charge       = 0
  Multiplicity = 1
  Basis Set: 6-31G
    Blend: 6-31G
  Basis Set: (6-31G AUX)
    Blend: CC-PVDZ-JKFIT

    Orbital Energies (a.u.)
    -----------------------

    Doubly Occupied:

       1Ap   -20.566891     2Ap    -1.444839     3Ap    -0.706719
       4Ap    -0.567794     1App   -0.514948

  @DF-RHF Final Energy:   -75.80610146524070

   => Energetics <=

    Nuclear Repulsion Energy =              9.9564976736898334
    One-Electron Energy =                -123.9228156698678731
    Two-Electron Energy =                  38.1602165309373262
    Total Energy =                        -75.8061014652407152
    Molecular point group: cs

    Geometry (in Angstrom), charge = 0, multiplicity = 1:

       Center              X                  Y                   Z               Mass
    ------------   -----------------  -----------------  -----------------  -----------------
           O          0.039170205645     0.067148923963     0.000000000000    15.994914619560
           H          0.039170205645    -1.132851076037     0.000000000000     1.007825032070
           H         -0.660829794355     0.067148923963     0.000000000000     1.007825032070

  Basis Set: 6-31G
    Blend: 6-31G
  Basis Set: (6-31G AUX)
    Blend: CC-PVDZ-JKFIT

  -Total Gradient:
     Atom            X                  Y                   Z
    ------   -----------------  -----------------  -----------------
       1       -0.720790280920     0.161572176209     0.000000000000
       2       -0.028618998985    -0.112511036079     0.000000000000
       3        0.749409279905    -0.049061140130     0.000000000000

*** Psi4 exiting successfully. Buy a developer a beer!
