                               Psi4 1.2.1 release

  ==> Input File <==

--------------------------------------------------------------------------
# density fitted hartree fock
molecule h2o {
0 1
H 0.0000000000 0.0000000000 1.2000000000
H 0.0000000000 0.8210369523 -0.2199961883
O 0.0000000000 0.0000000000 0.0000000000
}

set basis 6-31g
energy('hf')

--------------------------------------------------------------------------

    Molecular point group: cs

    Geometry (in Angstrom), charge = 0, multiplicity = 1:

       Center              X                  Y                   Z               Mass
    ------------   -----------------  -----------------  -----------------  -----------------
         H            0.045943123234    -1.145161498804     0.000000000000     1.007825032070
         H           -0.775093829066     0.274834689496     0.000000000000     1.007825032070
         O            0.045943123234     0.054838501196     0.000000000000    15.994914619560

  Charge       = 0
  Multiplicity = 1
  Basis Set: 6-31G
    Blend: 6-31G
  Basis Set: (6-31G AUX)
    Blend: CC-PVDZ-JKFIT

    Orbital Energies [Eh]
    ---------------------

    Doubly Occupied:

       1Ap   -20.570043     2Ap    -1.350673     3Ap    -0.684813
       4Ap    -0.540644     1App   -0.500324

  @DF-RHF Final Energy:   -75.93203111810848

   => Energetics <=

    Nuclear Repulsion Energy =              8.8309550380765085
    One-Electron Energy =                -122.2329744756911225
    Two-Electron Energy =                  37.4699883195061290
    Total Energy =                        -75.9320311181084833

  Dipole Moment: [D]
     X:    -2.0079      Y:    -1.6925      Z:     0.0000     Total:     2.6261

*** Psi4 exiting successfully. Buy a developer a beer!
