                               Psi4 1.2a1.dev429

  ==> Input File <==

--------------------------------------------------------------------------
# density-fitted hartree fock energies and gradients with 6-31g
molecule h2o {
0 1
O 0.0000000000 0.0000000000 0.0000000000
H 0.0000000000 0.0000000000 0.9000000000
H 0.0000000000 0.9526279442 -0.5500000000
}

set basis 6-31g

gradient('mp2')
--------------------------------------------------------------------------

    Molecular point group: cs
  Charge       = 0
  Multiplicity = 1
  Basis Set: 6-31G
    Blend: 6-31G
  Basis Set: (6-31G AUX)
    Blend: CC-PVDZ-JKFIT

    Orbital Energies (a.u.)
    -----------------------

    Doubly Occupied:

       1Ap   -20.553988     2Ap    -1.328077     3Ap    -0.709409
       4Ap    -0.523486     1App   -0.490868

  @DF-RHF Final Energy:   -75.96196685184528

   => Energetics <=

    Nuclear Repulsion Energy =              8.8573715988897739
    One-Electron Energy =                -122.4270202480179819
    Two-Electron Energy =                  37.6076817972829360
    Total Energy =                        -75.9619668518452755
  Basis Set: (6-31G AUX)
    Blend: CC-PVDZ-RI
    Molecular point group: cs

    Geometry (in Angstrom), charge = 0, multiplicity = 1:

       Center              X                  Y                   Z               Mass
    ------------   -----------------  -----------------  -----------------  -----------------
           O          0.053306617825     0.019585102823     0.000000000000    15.994914619560
           H          0.053306617825    -0.880414897177     0.000000000000     1.007825032070
           H         -0.899321326375     0.569585102823     0.000000000000     1.007825032070

  Basis Set: 6-31G
    Blend: 6-31G
  Basis Set: (6-31G AUX)
    Blend: CC-PVDZ-JKFIT
  Basis Set: (6-31G AUX)
    Blend: CC-PVDZ-JKFIT
	 Reference Energy          =     -75.9619668518452755 [Eh]
	 Singles Energy            =      -0.0000000000000000 [Eh]
	 Same-Spin Energy          =      -0.0309398540846156 [Eh]
	 Opposite-Spin Energy      =      -0.1004527243455995 [Eh]
	 Correlation Energy        =      -0.1313925784302150 [Eh]
	 Total Energy              =     -76.0933594302754841 [Eh]

	 ================> DF-SCS-MP2 Energies <==================
	-----------------------------------------------------------
	 SCS Same-Spin Scale       =       0.3333333333333333 [-]
	 SCS Opposite-Spin Scale   =       1.2000000000000000 [-]
	 SCS Same-Spin Energy      =      -0.0103132846948719 [Eh]
	 SCS Opposite-Spin Energy  =      -0.1205432692147194 [Eh]
	 SCS Correlation Energy    =      -0.1308565539095912 [Eh]
	 SCS Total Energy          =     -76.0928234057548707 [Eh]
	-----------------------------------------------------------

  -Total Gradient:
     Atom            X                  Y                   Z
    ------   -----------------  -----------------  -----------------
       1        0.048638810560    -0.147525601577     0.000000000000
       2        0.019533793837     0.089711481199    -0.000000000000
       3       -0.068172604397     0.057814120378    -0.000000000000

*** Psi4 exiting successfully. Buy a developer a beer!
