                               Psi4 1.2a1.dev429

  ==> Input File <==

--------------------------------------------------------------------------
# density-fitted hartree fock energies and gradients with 6-31g
molecule o2 {
0 3
O 0.0000000000 0.0000000000 0.0000000000
O 0.0000000000 0.0000000000 1.0000000000
}

set basis 6-31g
set reference rohf

energy('scf')
--------------------------------------------------------------------------

    Molecular point group: d2h

    Geometry (in Angstrom), charge = 0, multiplicity = 3:

       Center              X                  Y                   Z               Mass
    ------------   -----------------  -----------------  -----------------  -----------------
           O          0.000000000000     0.000000000000    -0.500000000000    15.994914619560
           O          0.000000000000     0.000000000000     0.500000000000    15.994914619560

  Charge       = 0
  Multiplicity = 3
  Basis Set: 6-31G
    Blend: 6-31G
  Basis Set: (6-31G AUX)
    Blend: CC-PVDZ-JKFIT

    Orbital Energies (a.u.)
    -----------------------

    Doubly Occupied:

       1Ag   -20.712938     1B1u  -20.710364     2Ag    -1.935903
       2B1u   -1.019019     1B2u   -0.825154     1B3u   -0.825154
       3Ag    -0.782664

    Singly Occupied:

       1B3g   -0.122671     1B2g   -0.122671

  @DF-ROHF Final Energy:  -149.42595605123245

   => Energetics <=

    Nuclear Repulsion Energy =             33.8673413497599896
    One-Electron Energy =                -272.0575524391247200
    Two-Electron Energy =                  88.7642550381323048
    Total Energy =                       -149.4259560512324470
*** Psi4 exiting successfully. Buy a developer a beer!
