                               Psi4 1.2a1.dev429

  ==> Input File <==

--------------------------------------------------------------------------
# density-fitted hartree fock energies and gradients with 6-31g
molecule h20 {
0 1
O 0.0000000000 0.0000000000 0.0000000000
H 0.0000000000 0.0000000000 0.8000000000
H 0.0000000000 0.2736161147 -0.7517540966
}

set basis 6-31g

gradient('hf')
--------------------------------------------------------------------------

    Molecular point group: c2v
  Charge       = 0
  Multiplicity = 1
  Basis Set: 6-31G
    Blend: 6-31G
  Basis Set: (6-31G AUX)
    Blend: CC-PVDZ-JKFIT

    Orbital Energies (a.u.)
    -----------------------

    Doubly Occupied:

       1A1   -20.500107     2A1    -1.394985     1B2    -0.894565
       3A1    -0.503870     1B1    -0.498671

  @DF-RHF Final Energy:   -75.89857620433342

   => Energetics <=

    Nuclear Repulsion Energy =             10.9193820593974049
    One-Electron Energy =                -126.0515191923925755
    Two-Electron Energy =                  39.2335609286617455
    Total Energy =                        -75.8985762043334233
    Molecular point group: c2v

    Geometry (in Angstrom), charge = 0, multiplicity = 1:

       Center              X                  Y                   Z               Mass
    ------------   -----------------  -----------------  -----------------  -----------------
           O         -0.000000000000     0.000000000000    -0.015547051041    15.994914619560
           H          0.000000000000    -0.787846202399     0.123371491115     1.007825032070
           H         -0.000000000000     0.787846202399     0.123371491115     1.007825032070

  Basis Set: 6-31G
    Blend: 6-31G
  Basis Set: (6-31G AUX)
    Blend: CC-PVDZ-JKFIT

  -Total Gradient:
     Atom            X                  Y                   Z
    ------   -----------------  -----------------  -----------------
       1        0.000000000000     0.000000000000     0.130765170077
       2       -0.000000000000     0.252514929230    -0.065382585039
       3        0.000000000000    -0.252514929230    -0.065382585039

*** Psi4 exiting successfully. Buy a developer a beer!
