                               Psi4 1.2a1.dev429

  ==> Input File <==

--------------------------------------------------------------------------
# density-fitted hartree fock energies and gradients with 6-31g
molecule h20 {
0 1
O 0.0000000000 0.0000000000 0.0000000000
H 0.0000000000 0.0000000000 1.0000000000
H 0.0000000000 0.1389185421 -0.7878462024
}

set basis 6-31g

gradient('hf')
--------------------------------------------------------------------------

    Molecular point group: cs
  Charge       = 0
  Multiplicity = 1
  Basis Set: 6-31G
    Blend: 6-31G
  Basis Set: (6-31G AUX)
    Blend: CC-PVDZ-JKFIT

    Orbital Energies (a.u.)
    -----------------------

    Doubly Occupied:

       1Ap   -20.501415     2Ap    -1.337718     3Ap    -0.807808
       4Ap    -0.478103     1App   -0.477100

  @DF-RHF Final Energy:   -75.91270850221312

   => Energetics <=

    Nuclear Repulsion Energy =              9.8202861341523509
    One-Electron Energy =                -124.2617028185180033
    Two-Electron Energy =                  38.5287081821525206
    Total Energy =                        -75.9127085022131212
    Molecular point group: cs

    Geometry (in Angstrom), charge = 0, multiplicity = 1:

       Center              X                  Y                   Z               Mass
    ------------   -----------------  -----------------  -----------------  -----------------
           O          0.007773525517     0.011871582686     0.000000000000    15.994914619560
           H          0.007773525517    -0.988128417314     0.000000000000     1.007825032070
           H         -0.131145016583     0.799717785086     0.000000000000     1.007825032070

  Basis Set: 6-31G
    Blend: 6-31G
  Basis Set: (6-31G AUX)
    Blend: CC-PVDZ-JKFIT

  -Total Gradient:
     Atom            X                  Y                   Z
    ------   -----------------  -----------------  -----------------
       1       -0.072137075874     0.346352076493     0.000000000000
       2        0.011422709053    -0.084249741350     0.000000000000
       3        0.060714366822    -0.262102335143     0.000000000000

*** Psi4 exiting successfully. Buy a developer a beer!
