                               Psi4 1.3.1 release

  ==> Input File <==

--------------------------------------------------------------------------
# density fitted hartree fock
molecule h2o {
0 1
H 0.0000000000 0.0000000000 1.0250000000
H 0.0000000000 0.7852976026 -0.3252809175
O 0.0000000000 0.0000000000 0.0000000000
}

set basis 6-31g
energy('hf')

--------------------------------------------------------------------------

    Molecular point group: cs

    Geometry (in Angstrom), charge = 0, multiplicity = 1:

       Center              X                  Y                   Z               Mass
    ------------   -----------------  -----------------  -----------------  -----------------
         H            0.043943240844    -0.985845513772     0.000000000000     1.007825032230
         H           -0.741354361756     0.364435403728     0.000000000000     1.007825032230
         O            0.043943240844     0.039154486228     0.000000000000    15.994914619570

  Charge       = 0
  Multiplicity = 1
  Basis Set: 6-31G
    Blend: 6-31G
  Basis Set: (6-31G AUX)
    Blend: CC-PVDZ-JKFIT

    Orbital Energies [Eh]
    ---------------------

    Doubly Occupied:

       1Ap   -20.549812     2Ap    -1.366773     3Ap    -0.735772
       4Ap    -0.546902     1App   -0.499258

  @DF-RHF Final Energy:   -75.96656009964525

   => Energetics <=

    Nuclear Repulsion Energy =              9.4494293950730892
    One-Electron Energy =                -123.4349385287951719
    Two-Electron Energy =                  38.0189490340768259
    Total Energy =                        -75.9665600996452497

  Dipole Moment: [D]
     X:    -1.9850      Y:    -1.4857      Z:     0.0000     Total:     2.4794

*** Psi4 exiting successfully. Buy a developer a beer!
