                               Psi4 1.2a1.dev429

  ==> Input File <==

--------------------------------------------------------------------------
# density-fitted hartree fock energies and gradients with 6-31g
molecule h2o {
0 1
O 0.0000000000 0.0000000000 0.0000000000
H 0.0000000000 0.0000000000 1.1000000000
H 0.0000000000 0.4446261863 -1.2216004070
}

set basis 6-31g

gradient('mp2')
--------------------------------------------------------------------------

    Molecular point group: cs
  Charge       = 0
  Multiplicity = 1
  Basis Set: 6-31G
    Blend: 6-31G
  Basis Set: (6-31G AUX)
    Blend: CC-PVDZ-JKFIT

    Orbital Energies (a.u.)
    -----------------------

    Doubly Occupied:

       1Ap   -20.524467     2Ap    -1.205932     3Ap    -0.613448
       1App   -0.440006     4Ap    -0.436556

  @DF-RHF Final Energy:   -75.85186686030416

   => Energetics <=

    Nuclear Repulsion Energy =              7.3289044054115937
    One-Electron Energy =                -119.9207229601594946
    Two-Electron Energy =                  36.7399516944437607
    Total Energy =                        -75.8518668603041419
  Basis Set: (6-31G AUX)
    Blend: CC-PVDZ-RI
    Molecular point group: cs

    Geometry (in Angstrom), charge = 0, multiplicity = 1:

       Center              X                  Y                   Z               Mass
    ------------   -----------------  -----------------  -----------------  -----------------
           O          0.024880141647    -0.006804447070     0.000000000000    15.994914619560
           H          0.024880141647    -1.106804447070     0.000000000000     1.007825032070
           H         -0.419746044653     1.214795959930     0.000000000000     1.007825032070

  Basis Set: 6-31G
    Blend: 6-31G
  Basis Set: (6-31G AUX)
    Blend: CC-PVDZ-JKFIT
  Basis Set: (6-31G AUX)
    Blend: CC-PVDZ-JKFIT
	 Reference Energy          =     -75.8518668603041561 [Eh]
	 Singles Energy            =      -0.0000000000000000 [Eh]
	 Same-Spin Energy          =      -0.0338675617541935 [Eh]
	 Opposite-Spin Energy      =      -0.1081058077660883 [Eh]
	 Correlation Energy        =      -0.1419733695202818 [Eh]
	 Total Energy              =     -75.9938402298244426 [Eh]

	 ================> DF-SCS-MP2 Energies <==================
	-----------------------------------------------------------
	 SCS Same-Spin Scale       =       0.3333333333333333 [-]
	 SCS Opposite-Spin Scale   =       1.2000000000000000 [-]
	 SCS Same-Spin Energy      =      -0.0112891872513978 [Eh]
	 SCS Opposite-Spin Energy  =      -0.1297269693193060 [Eh]
	 SCS Correlation Energy    =      -0.1410161565707038 [Eh]
	 SCS Total Energy          =     -75.9928830168748561 [Eh]
	-----------------------------------------------------------

  -Total Gradient:
     Atom            X                  Y                   Z
    ------   -----------------  -----------------  -----------------
       1       -0.025568011690    -0.041201093366    -0.000000000000
       2        0.038794994709    -0.091118107341     0.000000000000
       3       -0.013226983019     0.132319200707     0.000000000000

*** Psi4 exiting successfully. Buy a developer a beer!
