                               Psi4 1.3.1 release

  ==> Input File <==

--------------------------------------------------------------------------
# density fitted MP2
molecule h2o {
0 1
H 0.0000000000 0.0000000000 1.0250000000
H 0.0000000000 0.9375000000 0.0000000000
O 0.0000000000 0.0000000000 0.0000000000
}

set basis 6-31g
energy('mp2')

--------------------------------------------------------------------------

    Molecular point group: cs

    Geometry (in Angstrom), charge = 0, multiplicity = 1:

       Center              X                  Y                   Z               Mass
    ------------   -----------------  -----------------  -----------------  -----------------
         H            0.052460096854    -0.967643627440     0.000000000000     1.007825032230
         H           -0.885039903146     0.057356372560     0.000000000000     1.007825032230
         O            0.052460096854     0.057356372560     0.000000000000    15.994914619570

  Charge       = 0
  Multiplicity = 1
  Basis Set: 6-31G
    Blend: 6-31G
  Basis Set: (6-31G AUX)
    Blend: CC-PVDZ-JKFIT

    Orbital Energies [Eh]
    ---------------------

    Doubly Occupied:

       1Ap   -20.575121     2Ap    -1.362357     3Ap    -0.671185
       4Ap    -0.584535     1App   -0.507348

  @DF-RHF Final Energy:   -75.96811591750840

   => Energetics <=

    Nuclear Repulsion Energy =              9.0267654830216237
    One-Electron Energy =                -122.5886707362035253
    Two-Electron Energy =                  37.5937893356734989
    Total Energy =                        -75.9681159175084133

  Dipole Moment: [D]
     X:    -2.0255      Y:    -2.0171      Z:     0.0000     Total:     2.8585

  Basis Set: (6-31G AUX)
    Blend: CC-PVDZ-RI
	 Reference Energy          =     -75.9681159175083991 [Eh]
	 Singles Energy            =      -0.0000000000000000 [Eh]
	 Same-Spin Energy          =      -0.0307457238176453 [Eh]
	 Opposite-Spin Energy      =      -0.1016509466249637 [Eh]
	 Correlation Energy        =      -0.1323966704426090 [Eh]
	 Total Energy              =     -76.1005125879510018 [Eh]

	 ================> DF-SCS-MP2 Energies <==================
	-----------------------------------------------------------
	 SCS Same-Spin Scale       =       0.3333333333333333 [-]
	 SCS Opposite-Spin Scale   =       1.2000000000000000 [-]
	 SCS Same-Spin Energy      =      -0.0102485746058818 [Eh]
	 SCS Opposite-Spin Energy  =      -0.1219811359499564 [Eh]
	 SCS Correlation Energy    =      -0.1322297105558382 [Eh]
	 SCS Total Energy          =     -76.1003456280642325 [Eh]
	-----------------------------------------------------------

*** Psi4 exiting successfully. Buy a developer a beer!
