                               Psi4 1.2.1 release

  ==> Input File <==

--------------------------------------------------------------------------
# density fitted hartree fock
molecule h2o {
0 1
H 0.0000000000 0.0000000000 1.1125000000
H 0.0000000000 0.8661370617 -0.3587657178
O 0.0000000000 0.0000000000 0.0000000000
}

set basis 6-31g
energy('hf')

--------------------------------------------------------------------------

    Molecular point group: cs

    Geometry (in Angstrom), charge = 0, multiplicity = 1:

       Center              X                  Y                   Z               Mass
    ------------   -----------------  -----------------  -----------------  -----------------
         H            0.048466809748    -1.070322961663     0.000000000000     1.007825032070
         H           -0.817670251952     0.400942756137     0.000000000000     1.007825032070
         O            0.048466809748     0.042177038337     0.000000000000    15.994914619560

  Charge       = 0
  Multiplicity = 1
  Basis Set: 6-31G
    Blend: 6-31G
  Basis Set: (6-31G AUX)
    Blend: CC-PVDZ-JKFIT

    Orbital Energies [Eh]
    ---------------------

    Doubly Occupied:

       1Ap   -20.565870     2Ap    -1.321979     3Ap    -0.686976
       4Ap    -0.533638     1App   -0.494116

  @DF-RHF Final Energy:   -75.96514748826914

   => Energetics <=

    Nuclear Repulsion Energy =              8.6309175507087321
    One-Electron Energy =                -121.9869675943923539
    Two-Electron Energy =                  37.3909025554144918
    Total Energy =                        -75.9651474882691389

  Dipole Moment: [D]
     X:    -2.0254      Y:    -1.4753      Z:     0.0000     Total:     2.5057

*** Psi4 exiting successfully. Buy a developer a beer!
