                               Psi4 1.2a1.dev429

  ==> Input File <==

--------------------------------------------------------------------------
# density-fitted hartree fock energies and gradients with 6-31g
molecule h2o {
0 1
O 0.0000000000 0.0000000000 0.0000000000
H 0.0000000000 0.0000000000 1.1000000000
H 0.0000000000 0.3420201433 -0.9396926208
}

set basis 6-31g

gradient('mp2')
--------------------------------------------------------------------------

    Molecular point group: cs
  Charge       = 0
  Multiplicity = 1
  Basis Set: 6-31G
    Blend: 6-31G
  Basis Set: (6-31G AUX)
    Blend: CC-PVDZ-JKFIT

    Orbital Energies (a.u.)
    -----------------------

    Doubly Occupied:

       1Ap   -20.516842     2Ap    -1.256933     3Ap    -0.699008
       4Ap    -0.458193     1App   -0.456234

  @DF-RHF Final Energy:   -75.92263642988719

   => Energetics <=

    Nuclear Repulsion Energy =              8.3378466520616108
    One-Electron Energy =                -121.7465453831701723
    Two-Electron Energy =                  37.4860623012213523
    Total Energy =                        -75.9226364298872056
  Basis Set: (6-31G AUX)
    Blend: CC-PVDZ-RI
    Molecular point group: cs

    Geometry (in Angstrom), charge = 0, multiplicity = 1:

       Center              X                  Y                   Z               Mass
    ------------   -----------------  -----------------  -----------------  -----------------
           O          0.019138570497     0.008970390014     0.000000000000    15.994914619560
           H          0.019138570497    -1.091029609986     0.000000000000     1.007825032070
           H         -0.322881572803     0.948663010814     0.000000000000     1.007825032070

  Basis Set: 6-31G
    Blend: 6-31G
  Basis Set: (6-31G AUX)
    Blend: CC-PVDZ-JKFIT
  Basis Set: (6-31G AUX)
    Blend: CC-PVDZ-JKFIT
	 Reference Energy          =     -75.9226364298871914 [Eh]
	 Singles Energy            =      -0.0000000000000000 [Eh]
	 Same-Spin Energy          =      -0.0318722426784042 [Eh]
	 Opposite-Spin Energy      =      -0.1001826447082085 [Eh]
	 Correlation Energy        =      -0.1320548873866128 [Eh]
	 Total Energy              =     -76.0546913172738073 [Eh]

	 ================> DF-SCS-MP2 Energies <==================
	-----------------------------------------------------------
	 SCS Same-Spin Scale       =       0.3333333333333333 [-]
	 SCS Opposite-Spin Scale   =       1.2000000000000000 [-]
	 SCS Same-Spin Energy      =      -0.0106240808928014 [Eh]
	 SCS Opposite-Spin Energy  =      -0.1202191736498503 [Eh]
	 SCS Correlation Energy    =      -0.1308432545426517 [Eh]
	 SCS Total Energy          =     -76.0534796844298455 [Eh]
	-----------------------------------------------------------

  -Total Gradient:
     Atom            X                  Y                   Z
    ------   -----------------  -----------------  -----------------
       1       -0.039919073455     0.052811680234    -0.000000000000
       2        0.027603784570    -0.107754577862     0.000000000000
       3        0.012315288885     0.054942897628    -0.000000000000

*** Psi4 exiting successfully. Buy a developer a beer!
