                               Psi4 1.2a1.dev429

  ==> Input File <==

--------------------------------------------------------------------------
# density-fitted hartree fock energies and gradients with 6-31g
molecule h20 {
0 1
O 0.0000000000 0.0000000000 0.0000000000
H 0.0000000000 0.0000000000 1.1000000000
H 0.0000000000 0.5362311102 -0.4499513268
}

set basis 6-31g

gradient('hf')
--------------------------------------------------------------------------

    Molecular point group: cs
  Charge       = 0
  Multiplicity = 1
  Basis Set: 6-31G
    Blend: 6-31G
  Basis Set: (6-31G AUX)
    Blend: CC-PVDZ-JKFIT

    Orbital Energies (a.u.)
    -----------------------

    Doubly Occupied:

       1Ap   -20.527188     2Ap    -1.407308     3Ap    -0.778553
       4Ap    -0.519290     1App   -0.495433

  @DF-RHF Final Energy:   -75.83253698691894

   => Energetics <=

    Nuclear Repulsion Energy =             10.2189525039839975
    One-Electron Energy =                -124.6474326670546589
    Two-Electron Energy =                  38.5959431761517209
    Total Energy =                        -75.8325369869189387
    Molecular point group: cs

    Geometry (in Angstrom), charge = 0, multiplicity = 1:

       Center              X                  Y                   Z               Mass
    ------------   -----------------  -----------------  -----------------  -----------------
           O          0.030006118371     0.036375057441     0.000000000000    15.994914619560
           H          0.030006118371    -1.063624942559     0.000000000000     1.007825032070
           H         -0.506224991829     0.486326384241     0.000000000000     1.007825032070

  Basis Set: 6-31G
    Blend: 6-31G
  Basis Set: (6-31G AUX)
    Blend: CC-PVDZ-JKFIT

  -Total Gradient:
     Atom            X                  Y                   Z
    ------   -----------------  -----------------  -----------------
       1       -0.599963988966     0.569674787961     0.000000000000
       2        0.019444159019    -0.122447670625     0.000000000000
       3        0.580519829947    -0.447227117337     0.000000000000

*** Psi4 exiting successfully. Buy a developer a beer!
