                               Psi4 1.2a1.dev429

  ==> Input File <==

--------------------------------------------------------------------------
# density-fitted hartree fock energies and gradients with 6-31g
molecule h20 {
0 1
O 0.0000000000 0.0000000000 0.0000000000
H 0.0000000000 0.0000000000 0.8000000000
H 0.0000000000 0.1215537244 -0.6893654271
}

set basis 6-31g

gradient('hf')
--------------------------------------------------------------------------

    Molecular point group: cs
  Charge       = 0
  Multiplicity = 1
  Basis Set: 6-31G
    Blend: 6-31G
  Basis Set: (6-31G AUX)
    Blend: CC-PVDZ-JKFIT

    Orbital Energies (a.u.)
    -----------------------

    Doubly Occupied:

       1Ap   -20.494200     2Ap    -1.428711     3Ap    -0.944720
       4Ap    -0.508789     1App   -0.507448

  @DF-RHF Final Energy:   -75.80838059099904

   => Energetics <=

    Nuclear Repulsion Energy =             11.6936379755852649
    One-Electron Energy =                -127.2363014282786366
    Two-Electron Energy =                  39.7342828616943393
    Total Energy =                        -75.8083805909990360
    Molecular point group: cs

    Geometry (in Angstrom), charge = 0, multiplicity = 1:

       Center              X                  Y                   Z               Mass
    ------------   -----------------  -----------------  -----------------  -----------------
           O          0.006801834831     0.006190827103     0.000000000000    15.994914619560
           H          0.006801834831    -0.793809172897     0.000000000000     1.007825032070
           H         -0.114751889569     0.695556254203     0.000000000000     1.007825032070

  Basis Set: 6-31G
    Blend: 6-31G
  Basis Set: (6-31G AUX)
    Blend: CC-PVDZ-JKFIT

  -Total Gradient:
     Atom            X                  Y                   Z
    ------   -----------------  -----------------  -----------------
       1       -0.143290128450     0.436701334486     0.000000000000
       2        0.010168131899     0.251349943554     0.000000000000
       3        0.133121996551    -0.688051278040     0.000000000000

*** Psi4 exiting successfully. Buy a developer a beer!
