                               Psi4 1.3.1 release

  ==> Input File <==

--------------------------------------------------------------------------
# density fitted MP2
molecule h2o {
0 1
H 0.0000000000 0.0000000000 1.1125000000
H 0.0000000000 0.8427281322 -0.1109472634
O 0.0000000000 0.0000000000 0.0000000000
}

set basis 6-31g
energy('mp2')

--------------------------------------------------------------------------

    Molecular point group: cs

    Geometry (in Angstrom), charge = 0, multiplicity = 1:

       Center              X                  Y                   Z               Mass
    ------------   -----------------  -----------------  -----------------  -----------------
         H            0.047156906066    -1.056455676196     0.000000000000     1.007825032230
         H           -0.795571226134     0.166991587204     0.000000000000     1.007825032230
         O            0.047156906066     0.056044323804     0.000000000000    15.994914619570

  Charge       = 0
  Multiplicity = 1
  Basis Set: 6-31G
    Blend: 6-31G
  Basis Set: (6-31G AUX)
    Blend: CC-PVDZ-JKFIT

    Orbital Energies [Eh]
    ---------------------

    Doubly Occupied:

       1Ap   -20.568924     2Ap    -1.369315     3Ap    -0.690925
       4Ap    -0.564608     1App   -0.505243

  @DF-RHF Final Energy:   -75.94764755213414

   => Energetics <=

    Nuclear Repulsion Energy =              9.1420145024748898
    One-Electron Energy =                -122.7812948770845480
    Two-Electron Energy =                  37.6916328224754977
    Total Energy =                        -75.9476475521341570

  Dipole Moment: [D]
     X:    -2.0264      Y:    -1.8416      Z:     0.0000     Total:     2.7382

  Basis Set: (6-31G AUX)
    Blend: CC-PVDZ-RI
	 Reference Energy          =     -75.9476475521341428 [Eh]
	 Singles Energy            =      -0.0000000000000000 [Eh]
	 Same-Spin Energy          =      -0.0303112989834078 [Eh]
	 Opposite-Spin Energy      =      -0.1005803197474073 [Eh]
	 Correlation Energy        =      -0.1308916187308151 [Eh]
	 Total Energy              =     -76.0785391708649570 [Eh]

	 ================> DF-SCS-MP2 Energies <==================
	-----------------------------------------------------------
	 SCS Same-Spin Scale       =       0.3333333333333333 [-]
	 SCS Opposite-Spin Scale   =       1.2000000000000000 [-]
	 SCS Same-Spin Energy      =      -0.0101037663278026 [Eh]
	 SCS Opposite-Spin Energy  =      -0.1206963836968888 [Eh]
	 SCS Correlation Energy    =      -0.1308001500246914 [Eh]
	 SCS Total Energy          =     -76.0784477021588401 [Eh]
	-----------------------------------------------------------

*** Psi4 exiting successfully. Buy a developer a beer!
