                               Psi4 1.2.1 release

  ==> Input File <==

--------------------------------------------------------------------------
# density fitted hartree fock
molecule h2o {
0 1
H 0.0000000000 0.0000000000 1.2000000000
H 0.0000000000 1.0745924817 -0.2879361877
O 0.0000000000 0.0000000000 0.0000000000
}

set basis 6-31g
energy('hf')

--------------------------------------------------------------------------

    Molecular point group: cs

    Geometry (in Angstrom), charge = 0, multiplicity = 1:

       Center              X                  Y                   Z               Mass
    ------------   -----------------  -----------------  -----------------  -----------------
         H            0.060131440704    -1.148963247015     0.000000000000     1.007825032070
         H           -1.014461040996     0.338972940685     0.000000000000     1.007825032070
         O            0.060131440704     0.051036752985     0.000000000000    15.994914619560

  Charge       = 0
  Multiplicity = 1
  Basis Set: 6-31G
    Blend: 6-31G
  Basis Set: (6-31G AUX)
    Blend: CC-PVDZ-JKFIT

    Orbital Energies [Eh]
    ---------------------

    Doubly Occupied:

       1Ap   -20.597535     2Ap    -1.275916     3Ap    -0.615774
       4Ap    -0.528926     1App   -0.495476

  @DF-RHF Final Energy:   -75.92914727752883

   => Energetics <=

    Nuclear Repulsion Energy =              7.6214839865681858
    One-Electron Energy =                -120.0740112277028260
    Two-Electron Energy =                  36.5233799636058194
    Total Energy =                        -75.9291472775288270

  Dipole Moment: [D]
     X:    -2.0900      Y:    -1.6077      Z:     0.0000     Total:     2.6368

*** Psi4 exiting successfully. Buy a developer a beer!
