                               Psi4 1.2a1.dev429

  ==> Input File <==

--------------------------------------------------------------------------
# density-fitted hartree fock energies and gradients with 6-31g
molecule h2o {
0 1
O 0.0000000000 0.0000000000 0.0000000000
H 0.0000000000 0.0000000000 1.2000000000
H 0.0000000000 0.2257426310 -1.2802500789
}

set basis 6-31g

gradient('mp2')
--------------------------------------------------------------------------

    Molecular point group: cs
  Charge       = 0
  Multiplicity = 1
  Basis Set: 6-31G
    Blend: 6-31G
  Basis Set: (6-31G AUX)
    Blend: CC-PVDZ-JKFIT

    Orbital Energies (a.u.)
    -----------------------

    Doubly Occupied:

       1Ap   -20.512857     2Ap    -1.176977     3Ap    -0.583649
       1App   -0.425059     4Ap    -0.423181

  @DF-RHF Final Energy:   -75.81913013186985

   => Energetics <=

    Nuclear Repulsion Energy =              6.9968013178131940
    One-Electron Energy =                -119.3884178142085517
    Two-Electron Energy =                  36.5724863645254956
    Total Energy =                        -75.8191301318698549
  Basis Set: (6-31G AUX)
    Blend: CC-PVDZ-RI
    Molecular point group: cs

    Geometry (in Angstrom), charge = 0, multiplicity = 1:

       Center              X                  Y                   Z               Mass
    ------------   -----------------  -----------------  -----------------  -----------------
           O          0.012631978970    -0.004490588705     0.000000000000    15.994914619560
           H          0.012631978970    -1.204490588705     0.000000000000     1.007825032070
           H         -0.213110652030     1.275759490195     0.000000000000     1.007825032070

  Basis Set: 6-31G
    Blend: 6-31G
  Basis Set: (6-31G AUX)
    Blend: CC-PVDZ-JKFIT
  Basis Set: (6-31G AUX)
    Blend: CC-PVDZ-JKFIT
	 Reference Energy          =     -75.8191301318698549 [Eh]
	 Singles Energy            =      -0.0000000000000000 [Eh]
	 Same-Spin Energy          =      -0.0340847636954489 [Eh]
	 Opposite-Spin Energy      =      -0.1077921749316253 [Eh]
	 Correlation Energy        =      -0.1418769386270742 [Eh]
	 Total Energy              =     -75.9610070704969331 [Eh]

	 ================> DF-SCS-MP2 Energies <==================
	-----------------------------------------------------------
	 SCS Same-Spin Scale       =       0.3333333333333333 [-]
	 SCS Opposite-Spin Scale   =       1.2000000000000000 [-]
	 SCS Same-Spin Energy      =      -0.0113615878984830 [Eh]
	 SCS Opposite-Spin Energy  =      -0.1293506099179504 [Eh]
	 SCS Correlation Energy    =      -0.1407121978164333 [Eh]
	 SCS Total Energy          =     -75.9598423296862819 [Eh]
	-----------------------------------------------------------

  -Total Gradient:
     Atom            X                  Y                   Z
    ------   -----------------  -----------------  -----------------
       1       -0.025248913696    -0.013348583498    -0.000000000000
       2        0.025277814822    -0.121186829097     0.000000000000
       3       -0.000028901125     0.134535412595     0.000000000000

*** Psi4 exiting successfully. Buy a developer a beer!
