                               Psi4 1.2a1.dev429

  ==> Input File <==

--------------------------------------------------------------------------
# density-fitted hartree fock energies and gradients with 6-31g
molecule h2o {
0 1
O 0.0000000000 0.0000000000 0.0000000000
H 0.0000000000 0.0000000000 0.8000000000
H 0.0000000000 0.0000000000 -1.5000000000
}

set basis 6-31g

gradient('mp2')
--------------------------------------------------------------------------

    Molecular point group: c2v
  Charge       = 0
  Multiplicity = 1
  Basis Set: 6-31G
    Blend: 6-31G
  Basis Set: (6-31G AUX)
    Blend: CC-PVDZ-JKFIT

    Orbital Energies (a.u.)
    -----------------------

    Doubly Occupied:

       1A1   -20.475090     2A1    -1.266709     3A1    -0.634871
       1B1    -0.424900     1B2    -0.424900

  @DF-RHF Final Energy:   -75.76453743473999

   => Energetics <=

    Nuclear Repulsion Energy =              8.3441275789263774
    One-Electron Energy =                -121.7643901680842902
    Two-Electron Energy =                  37.6557251544179152
    Total Energy =                        -75.7645374347399922
  Basis Set: (6-31G AUX)
    Blend: CC-PVDZ-RI
    Molecular point group: c2v

    Geometry (in Angstrom), charge = 0, multiplicity = 1:

       Center              X                  Y                   Z               Mass
    ------------   -----------------  -----------------  -----------------  -----------------
           O          0.000000000000     0.000000000000     0.039170205645    15.994914619560
           H          0.000000000000     0.000000000000     0.839170205645     1.007825032070
           H          0.000000000000     0.000000000000    -1.460829794355     1.007825032070

  Basis Set: 6-31G
    Blend: 6-31G
  Basis Set: (6-31G AUX)
    Blend: CC-PVDZ-JKFIT
  Basis Set: (6-31G AUX)
    Blend: CC-PVDZ-JKFIT
	 Reference Energy          =     -75.7645374347399922 [Eh]
	 Singles Energy            =      -0.0000000000000000 [Eh]
	 Same-Spin Energy          =      -0.0326510173355635 [Eh]
	 Opposite-Spin Energy      =      -0.1031113990583723 [Eh]
	 Correlation Energy        =      -0.1357624163939358 [Eh]
	 Total Energy              =     -75.9002998511339229 [Eh]

	 ================> DF-SCS-MP2 Energies <==================
	-----------------------------------------------------------
	 SCS Same-Spin Scale       =       0.3333333333333333 [-]
	 SCS Opposite-Spin Scale   =       1.2000000000000000 [-]
	 SCS Same-Spin Energy      =      -0.0108836724451878 [Eh]
	 SCS Opposite-Spin Energy  =      -0.1237336788700468 [Eh]
	 SCS Correlation Energy    =      -0.1346173513152346 [Eh]
	 SCS Total Energy          =     -75.8991547860552203 [Eh]
	-----------------------------------------------------------

  -Total Gradient:
     Atom            X                  Y                   Z
    ------   -----------------  -----------------  -----------------
       1        0.000000000000     0.000000000000     0.454336533947
       2       -0.000000000000    -0.000000000000    -0.307605364242
       3        0.000000000000    -0.000000000000    -0.146731169704

*** Psi4 exiting successfully. Buy a developer a beer!
