                               Psi4 1.2.1 release

  ==> Input File <==

--------------------------------------------------------------------------
# density fitted hartree fock
molecule h2o {
0 1
H 0.0000000000 0.0000000000 0.9375000000
H 0.0000000000 0.8118988160 -0.4687500000
O 0.0000000000 0.0000000000 0.0000000000
}

set basis 6-31g
energy('hf')

--------------------------------------------------------------------------

    Molecular point group: c2v

    Geometry (in Angstrom), charge = 0, multiplicity = 1:

       Center              X                  Y                   Z               Mass
    ------------   -----------------  -----------------  -----------------  -----------------
         H            0.000000000000    -0.811898816036     0.416289903135     1.007825032070
         H           -0.000000000000     0.811898816036     0.416289903135     1.007825032070
         O           -0.000000000000     0.000000000000    -0.052460096844    15.994914619560

  Charge       = 0
  Multiplicity = 1
  Basis Set: 6-31G
    Blend: 6-31G
  Basis Set: (6-31G AUX)
    Blend: CC-PVDZ-JKFIT

    Orbital Energies [Eh]
    ---------------------

    Doubly Occupied:

       1A1   -20.544332     2A1    -1.349675     1B2    -0.746436
       3A1    -0.534265     1B1    -0.494787

  @DF-RHF Final Energy:   -75.98348954744782

   => Energetics <=

    Nuclear Repulsion Energy =              9.3571796708910107
    One-Electron Energy =                -123.3423485368601433
    Two-Electron Energy =                  38.0016793185213047
    Total Energy =                        -75.9834895474478174

  Dipole Moment: [D]
     X:    -0.0000      Y:     0.0000      Z:     2.3227     Total:     2.3227

*** Psi4 exiting successfully. Buy a developer a beer!
