                               Psi4 1.2a1.dev429

  ==> Input File <==

--------------------------------------------------------------------------
# density-fitted hartree fock energies and gradients with 6-31g
molecule h2o {
0 1
O 0.0000000000 0.0000000000 0.0000000000
H 0.0000000000 0.0000000000 1.5000000000
H 0.0000000000 0.4446261863 -1.2216004070
}

set basis 6-31g

gradient('mp2')
--------------------------------------------------------------------------

    Molecular point group: cs
  Charge       = 0
  Multiplicity = 1
  Basis Set: 6-31G
    Blend: 6-31G
  Basis Set: (6-31G AUX)
    Blend: CC-PVDZ-JKFIT

    Orbital Energies (a.u.)
    -----------------------

    Doubly Occupied:

       1Ap   -20.545052     2Ap    -1.166289     3Ap    -0.529892
       1App   -0.435674     4Ap    -0.418778

  @DF-RHF Final Energy:   -75.75272222879025

   => Energetics <=

    Nuclear Repulsion Energy =              6.2706457207715891
    One-Electron Energy =                -117.8553656845476212
    Two-Electron Energy =                  35.8319977349857979
    Total Energy =                        -75.7527222287902475
  Basis Set: (6-31G AUX)
    Blend: CC-PVDZ-RI
    Molecular point group: cs

    Geometry (in Angstrom), charge = 0, multiplicity = 1:

       Center              X                  Y                   Z               Mass
    ------------   -----------------  -----------------  -----------------  -----------------
           O          0.024880141647     0.015578527585     0.000000000000    15.994914619560
           H          0.024880141647    -1.484421472415     0.000000000000     1.007825032070
           H         -0.419746044653     1.237178934585     0.000000000000     1.007825032070

  Basis Set: 6-31G
    Blend: 6-31G
  Basis Set: (6-31G AUX)
    Blend: CC-PVDZ-JKFIT
  Basis Set: (6-31G AUX)
    Blend: CC-PVDZ-JKFIT
	 Reference Energy          =     -75.7527222287902475 [Eh]
	 Singles Energy            =      -0.0000000000000000 [Eh]
	 Same-Spin Energy          =      -0.0362031091547251 [Eh]
	 Opposite-Spin Energy      =      -0.1215426330000903 [Eh]
	 Correlation Energy        =      -0.1577457421548153 [Eh]
	 Total Energy              =     -75.9104679709450636 [Eh]

	 ================> DF-SCS-MP2 Energies <==================
	-----------------------------------------------------------
	 SCS Same-Spin Scale       =       0.3333333333333333 [-]
	 SCS Opposite-Spin Scale   =       1.2000000000000000 [-]
	 SCS Same-Spin Energy      =      -0.0120677030515750 [Eh]
	 SCS Opposite-Spin Energy  =      -0.1458511596001083 [Eh]
	 SCS Correlation Energy    =      -0.1579188626516834 [Eh]
	 SCS Total Energy          =     -75.9106410914419314 [Eh]
	-----------------------------------------------------------

  -Total Gradient:
     Atom            X                  Y                   Z
    ------   -----------------  -----------------  -----------------
       1       -0.048261402061    -0.016922609927     0.000000000000
       2        0.040729514764    -0.099789629526    -0.000000000000
       3        0.007531887297     0.116712239453    -0.000000000000

*** Psi4 exiting successfully. Buy a developer a beer!
