                               Psi4 1.2a1.dev429

  ==> Input File <==

--------------------------------------------------------------------------
# density-fitted hartree fock energies and gradients with 6-31g
molecule h2o {
0 1
O 0.0000000000 0.0000000000 0.0000000000
H 0.0000000000 0.0000000000 1.2000000000
H 0.0000000000 0.0000000000 -1.0000000000
}

set basis 6-31g

gradient('mp2')
--------------------------------------------------------------------------

    Molecular point group: c2v
  Charge       = 0
  Multiplicity = 1
  Basis Set: 6-31G
    Blend: 6-31G
  Basis Set: (6-31G AUX)
    Blend: CC-PVDZ-JKFIT

    Orbital Energies (a.u.)
    -----------------------

    Doubly Occupied:

       1A1   -20.504004     2A1    -1.229440     3A1    -0.666365
       1B2    -0.439908     1B1    -0.439908

  @DF-RHF Final Energy:   -75.88597808980117

   => Energetics <=

    Nuclear Repulsion Energy =              8.0018008208003035
    One-Electron Energy =                -121.2163068719183059
    Two-Electron Energy =                  37.3285279613168299
    Total Energy =                        -75.8859780898011707
  Basis Set: (6-31G AUX)
    Blend: CC-PVDZ-RI
    Molecular point group: c2v

    Geometry (in Angstrom), charge = 0, multiplicity = 1:

       Center              X                  Y                   Z               Mass
    ------------   -----------------  -----------------  -----------------  -----------------
           O          0.000000000000     0.000000000000    -0.011191487327    15.994914619560
           H          0.000000000000     0.000000000000     1.188808512673     1.007825032070
           H          0.000000000000     0.000000000000    -1.011191487327     1.007825032070

  Basis Set: 6-31G
    Blend: 6-31G
  Basis Set: (6-31G AUX)
    Blend: CC-PVDZ-JKFIT
  Basis Set: (6-31G AUX)
    Blend: CC-PVDZ-JKFIT
	 Reference Energy          =     -75.8859780898011707 [Eh]
	 Singles Energy            =      -0.0000000000000000 [Eh]
	 Same-Spin Energy          =      -0.0323547816385392 [Eh]
	 Opposite-Spin Energy      =      -0.1009526424340980 [Eh]
	 Correlation Energy        =      -0.1333074240726372 [Eh]
	 Total Energy              =     -76.0192855138738111 [Eh]

	 ================> DF-SCS-MP2 Energies <==================
	-----------------------------------------------------------
	 SCS Same-Spin Scale       =       0.3333333333333333 [-]
	 SCS Opposite-Spin Scale   =       1.2000000000000000 [-]
	 SCS Same-Spin Energy      =      -0.0107849272128464 [Eh]
	 SCS Opposite-Spin Energy  =      -0.1211431709209176 [Eh]
	 SCS Correlation Energy    =      -0.1319280981337640 [Eh]
	 SCS Total Energy          =     -76.0179061879349405 [Eh]
	-----------------------------------------------------------

  -Total Gradient:
     Atom            X                  Y                   Z
    ------   -----------------  -----------------  -----------------
       1       -0.000000000000     0.000000000000    -0.090475003315
       2        0.000000000000     0.000000000000     0.139866694505
       3        0.000000000000    -0.000000000000    -0.049391691190

*** Psi4 exiting successfully. Buy a developer a beer!
