                               Psi4 1.2a1.dev429

  ==> Input File <==

--------------------------------------------------------------------------
# density-fitted hartree fock energies and gradients with 6-31g
molecule h2o {
0 1
O 0.0000000000 0.0000000000 0.0000000000
H 0.0000000000 0.0000000000 0.9000000000
H 0.0000000000 0.5130302150 -1.4095389312
}

set basis 6-31g

gradient('mp2')
--------------------------------------------------------------------------

    Molecular point group: cs
  Charge       = 0
  Multiplicity = 1
  Basis Set: 6-31G
    Blend: 6-31G
  Basis Set: (6-31G AUX)
    Blend: CC-PVDZ-JKFIT

    Orbital Energies (a.u.)
    -----------------------

    Doubly Occupied:

       1Ap   -20.510425     2Ap    -1.246542     3Ap    -0.623028
       1App   -0.439765     4Ap    -0.429107

  @DF-RHF Final Energy:   -75.81051821783534

   => Energetics <=

    Nuclear Repulsion Energy =              7.7497505635551827
    One-Electron Energy =                -120.6228038733665073
    Two-Electron Energy =                  37.0625350919759882
    Total Energy =                        -75.8105182178353374
  Basis Set: (6-31G AUX)
    Blend: CC-PVDZ-RI
    Molecular point group: cs

    Geometry (in Angstrom), charge = 0, multiplicity = 1:

       Center              X                  Y                   Z               Mass
    ------------   -----------------  -----------------  -----------------  -----------------
           O          0.028707855748    -0.028512492456     0.000000000000    15.994914619560
           H          0.028707855748    -0.928512492456     0.000000000000     1.007825032070
           H         -0.484322359252     1.381026438744     0.000000000000     1.007825032070

  Basis Set: 6-31G
    Blend: 6-31G
  Basis Set: (6-31G AUX)
    Blend: CC-PVDZ-JKFIT
  Basis Set: (6-31G AUX)
    Blend: CC-PVDZ-JKFIT
	 Reference Energy          =     -75.8105182178353374 [Eh]
	 Singles Energy            =      -0.0000000000000000 [Eh]
	 Same-Spin Energy          =      -0.0336338830024197 [Eh]
	 Opposite-Spin Energy      =      -0.1097744700582249 [Eh]
	 Correlation Energy        =      -0.1434083530606446 [Eh]
	 Total Energy              =     -75.9539265708959874 [Eh]

	 ================> DF-SCS-MP2 Energies <==================
	-----------------------------------------------------------
	 SCS Same-Spin Scale       =       0.3333333333333333 [-]
	 SCS Opposite-Spin Scale   =       1.2000000000000000 [-]
	 SCS Same-Spin Energy      =      -0.0112112943341399 [Eh]
	 SCS Opposite-Spin Energy  =      -0.1317293640698698 [Eh]
	 SCS Correlation Energy    =      -0.1429406584040098 [Eh]
	 SCS Total Energy          =     -75.9534588762393525 [Eh]
	-----------------------------------------------------------

  -Total Gradient:
     Atom            X                  Y                   Z
    ------   -----------------  -----------------  -----------------
       1       -0.040289862228    -0.212167339757    -0.000000000000
       2        0.052056166305     0.088518458903     0.000000000000
       3       -0.011766304077     0.123648880854    -0.000000000000

*** Psi4 exiting successfully. Buy a developer a beer!
