                               Psi4 1.2.1 release

  ==> Input File <==

--------------------------------------------------------------------------
# density fitted hartree fock
molecule h2o {
0 1
H 0.0000000000 0.0000000000 1.0250000000
H 0.0000000000 0.8876760389 -0.5125000000
O 0.0000000000 0.0000000000 0.0000000000
}

set basis 6-31g
energy('hf')

--------------------------------------------------------------------------

    Molecular point group: c2v

    Geometry (in Angstrom), charge = 0, multiplicity = 1:

       Center              X                  Y                   Z               Mass
    ------------   -----------------  -----------------  -----------------  -----------------
         H            0.000000000000    -0.887676038884     0.455143627456     1.007825032070
         H           -0.000000000000     0.887676038884     0.455143627456     1.007825032070
         O            0.000000000000     0.000000000000    -0.057356372553    15.994914619560

  Charge       = 0
  Multiplicity = 1
  Basis Set: 6-31G
    Blend: 6-31G
  Basis Set: (6-31G AUX)
    Blend: CC-PVDZ-JKFIT

    Orbital Energies [Eh]
    ---------------------

    Doubly Occupied:

       1A1   -20.559622     2A1    -1.307303     1B2    -0.693706
       3A1    -0.521602     1B1    -0.488819

  @DF-RHF Final Energy:   -75.97214492410582

   => Energetics <=

    Nuclear Repulsion Energy =              8.5583960401870378
    One-Electron Energy =                -121.9189727637595411
    Two-Electron Energy =                  37.3884317994666802
    Total Energy =                        -75.9721449241058338

  Dipole Moment: [D]
     X:     0.0000      Y:     0.0000      Z:     2.3558     Total:     2.3558

*** Psi4 exiting successfully. Buy a developer a beer!
