                               Psi4 1.2a1.dev429

  ==> Input File <==

--------------------------------------------------------------------------
# density-fitted hartree fock energies and gradients with 6-31g
molecule h2o {
0 1
O 0.0000000000 0.0000000000 0.0000000000
H 0.0000000000 0.0000000000 1.4000000000
H 0.0000000000 0.3078181290 -0.8457233587
}

set basis 6-31g

gradient('mp2')
--------------------------------------------------------------------------

    Molecular point group: cs
  Charge       = 0
  Multiplicity = 1
  Basis Set: 6-31G
    Blend: 6-31G
  Basis Set: (6-31G AUX)
    Blend: CC-PVDZ-JKFIT

    Orbital Energies (a.u.)
    -----------------------

    Doubly Occupied:

       1Ap   -20.510348     2Ap    -1.251997     3Ap    -0.643475
       1App   -0.443468     4Ap    -0.438424

  @DF-RHF Final Energy:   -75.83886459682891

   => Energetics <=

    Nuclear Repulsion Energy =              7.9611220804151399
    One-Electron Energy =                -121.0245499592849114
    Two-Electron Energy =                  37.2245632820408474
    Total Energy =                        -75.8388645968289268
  Basis Set: (6-31G AUX)
    Blend: CC-PVDZ-RI
    Molecular point group: cs

    Geometry (in Angstrom), charge = 0, multiplicity = 1:

       Center              X                  Y                   Z               Mass
    ------------   -----------------  -----------------  -----------------  -----------------
           O          0.017224713449     0.031015900034     0.000000000000    15.994914619560
           H          0.017224713449    -1.368984099966     0.000000000000     1.007825032070
           H         -0.290593415551     0.876739258734     0.000000000000     1.007825032070

  Basis Set: 6-31G
    Blend: 6-31G
  Basis Set: (6-31G AUX)
    Blend: CC-PVDZ-JKFIT
  Basis Set: (6-31G AUX)
    Blend: CC-PVDZ-JKFIT
	 Reference Energy          =     -75.8388645968289126 [Eh]
	 Singles Energy            =      -0.0000000000000000 [Eh]
	 Same-Spin Energy          =      -0.0330424512302134 [Eh]
	 Opposite-Spin Energy      =      -0.1060814855549227 [Eh]
	 Correlation Energy        =      -0.1391239367851361 [Eh]
	 Total Energy              =     -75.9779885336140524 [Eh]

	 ================> DF-SCS-MP2 Energies <==================
	-----------------------------------------------------------
	 SCS Same-Spin Scale       =       0.3333333333333333 [-]
	 SCS Opposite-Spin Scale   =       1.2000000000000000 [-]
	 SCS Same-Spin Energy      =      -0.0110141504100711 [Eh]
	 SCS Opposite-Spin Energy  =      -0.1272977826659072 [Eh]
	 SCS Correlation Energy    =      -0.1383119330759784 [Eh]
	 SCS Total Energy          =     -75.9771765299048951 [Eh]
	-----------------------------------------------------------

  -Total Gradient:
     Atom            X                  Y                   Z
    ------   -----------------  -----------------  -----------------
       1       -0.100379962643     0.196140428042     0.000000000000
       2        0.029216231582    -0.133499203055     0.000000000000
       3        0.071163731062    -0.062641224987    -0.000000000000

*** Psi4 exiting successfully. Buy a developer a beer!
