                               Psi4 1.3.1 release

  ==> Input File <==

--------------------------------------------------------------------------
# density fitted hartree fock
molecule h2o {
0 1
H 0.0000000000 0.0000000000 1.2000000000
H 0.0000000000 0.9294795575 -0.1223683052
O 0.0000000000 0.0000000000 0.0000000000
}

set basis 6-31g
energy('hf')

--------------------------------------------------------------------------

    Molecular point group: cs

    Geometry (in Angstrom), charge = 0, multiplicity = 1:

       Center              X                  Y                   Z               Mass
    ------------   -----------------  -----------------  -----------------  -----------------
         H            0.052011293451    -1.139698492713     0.000000000000     1.007825032230
         H           -0.877468264049     0.182669812487     0.000000000000     1.007825032230
         O            0.052011293451     0.060301507287     0.000000000000    15.994914619570

  Charge       = 0
  Multiplicity = 1
  Basis Set: 6-31G
    Blend: 6-31G
  Basis Set: (6-31G AUX)
    Blend: CC-PVDZ-JKFIT

    Orbital Energies [Eh]
    ---------------------

    Doubly Occupied:

       1Ap   -20.585879     2Ap    -1.325734     3Ap    -0.652743
       4Ap    -0.548780     1App   -0.502277

  @DF-RHF Final Energy:   -75.94454681749259

   => Energetics <=

    Nuclear Repulsion Energy =              8.3708836608554886
    One-Electron Energy =                -121.4000263740560968
    Two-Electron Energy =                  37.0845958957080271
    Total Energy =                        -75.9445468174925793

  Dipole Moment: [D]
     X:    -2.0661      Y:    -1.8147      Z:     0.0000     Total:     2.7499

*** Psi4 exiting successfully. Buy a developer a beer!
