                               Psi4 1.2a1.dev429

  ==> Input File <==

--------------------------------------------------------------------------
# density-fitted hartree fock energies and gradients with 6-31g
molecule h2o {
0 1
O 0.0000000000 0.0000000000 0.0000000000
H 0.0000000000 0.0000000000 1.3000000000
H 0.0000000000 0.0000000000 -0.9000000000
}

set basis 6-31g

gradient('mp2')
--------------------------------------------------------------------------

    Molecular point group: c2v
  Charge       = 0
  Multiplicity = 1
  Basis Set: 6-31G
    Blend: 6-31G
  Basis Set: (6-31G AUX)
    Blend: CC-PVDZ-JKFIT

    Orbital Energies (a.u.)
    -----------------------

    Doubly Occupied:

       1A1   -20.495647     2A1    -1.247194     3A1    -0.665169
       1B1    -0.437913     1B2    -0.437913

  @DF-RHF Final Energy:   -75.85743865326032

   => Energetics <=

    Nuclear Repulsion Energy =              8.2008076342871394
    One-Electron Energy =                -121.5488199110755829
    Two-Electron Energy =                  37.4905736235281282
    Total Energy =                        -75.8574386532603171
  Basis Set: (6-31G AUX)
    Blend: CC-PVDZ-RI
    Molecular point group: c2v

    Geometry (in Angstrom), charge = 0, multiplicity = 1:

       Center              X                  Y                   Z               Mass
    ------------   -----------------  -----------------  -----------------  -----------------
           O          0.000000000000     0.000000000000    -0.022382974654    15.994914619560
           H          0.000000000000     0.000000000000     1.277617025346     1.007825032070
           H          0.000000000000     0.000000000000    -0.922382974654     1.007825032070

  Basis Set: 6-31G
    Blend: 6-31G
  Basis Set: (6-31G AUX)
    Blend: CC-PVDZ-JKFIT
  Basis Set: (6-31G AUX)
    Blend: CC-PVDZ-JKFIT
	 Reference Energy          =     -75.8574386532603171 [Eh]
	 Singles Energy            =      -0.0000000000000000 [Eh]
	 Same-Spin Energy          =      -0.0322756860195680 [Eh]
	 Opposite-Spin Energy      =      -0.1010274522102766 [Eh]
	 Correlation Energy        =      -0.1333031382298446 [Eh]
	 Total Energy              =     -75.9907417914901657 [Eh]

	 ================> DF-SCS-MP2 Energies <==================
	-----------------------------------------------------------
	 SCS Same-Spin Scale       =       0.3333333333333333 [-]
	 SCS Opposite-Spin Scale   =       1.2000000000000000 [-]
	 SCS Same-Spin Energy      =      -0.0107585620065227 [Eh]
	 SCS Opposite-Spin Energy  =      -0.1212329426523319 [Eh]
	 SCS Correlation Energy    =      -0.1319915046588546 [Eh]
	 SCS Total Energy          =     -75.9894301579191733 [Eh]
	-----------------------------------------------------------

  -Total Gradient:
     Atom            X                  Y                   Z
    ------   -----------------  -----------------  -----------------
       1       -0.000000000000    -0.000000000000    -0.222729742958
       2        0.000000000000    -0.000000000000     0.151669624947
       3       -0.000000000000     0.000000000000     0.071060118011

*** Psi4 exiting successfully. Buy a developer a beer!
