                               Psi4 1.2.1 release

  ==> Input File <==

--------------------------------------------------------------------------
# density fitted hartree fock
molecule h2o {
0 1
H 0.0000000000 0.0000000000 1.1125000000
H 0.0000000000 1.1029824083 -0.1452103888
O 0.0000000000 0.0000000000 0.0000000000
}

set basis 6-31g
energy('hf')

--------------------------------------------------------------------------

    Molecular point group: c2v

    Geometry (in Angstrom), charge = 0, multiplicity = 1:

       Center              X                  Y                   Z               Mass
    ------------   -----------------  -----------------  -----------------  -----------------
         H            0.000000000000    -0.836421785811     0.651430173104     1.007825032070
         H           -0.000000000000     0.836421785811     0.651430173104     1.007825032070
         O            0.000000000000     0.000000000000    -0.082092046218    15.994914619560

  Charge       = 0
  Multiplicity = 1
  Basis Set: 6-31G
    Blend: 6-31G
  Basis Set: (6-31G AUX)
    Blend: CC-PVDZ-JKFIT

    Orbital Energies [Eh]
    ---------------------

    Doubly Occupied:

       1A1   -20.596313     2A1    -1.295430     1B2    -0.623783
       3A1    -0.550125     1B1    -0.500319

  @DF-RHF Final Energy:   -75.94640538001779

   => Energetics <=

    Nuclear Repulsion Energy =              7.9269724518324640
    One-Electron Energy =                -120.6148062664099569
    Two-Electron Energy =                  36.7414284345596940
    Total Energy =                        -75.9464053800177936

  Dipole Moment: [D]
     X:     0.0000      Y:     0.0000      Z:     2.7663     Total:     2.7663

*** Psi4 exiting successfully. Buy a developer a beer!
