                               Psi4 1.2a1.dev429

  ==> Input File <==

--------------------------------------------------------------------------
# density-fitted hartree fock energies and gradients with 6-31g
molecule h20 {
0 1
O 0.0000000000 0.0000000000 0.0000000000
H 0.0000000000 0.0000000000 1.0000000000
H 0.0000000000 0.8356238926 -0.9958577761
}

set basis 6-31g

gradient('hf')
--------------------------------------------------------------------------

    Molecular point group: cs
  Charge       = 0
  Multiplicity = 1
  Basis Set: 6-31G
    Blend: 6-31G
  Basis Set: (6-31G AUX)
    Blend: CC-PVDZ-JKFIT

    Orbital Energies (a.u.)
    -----------------------

    Doubly Occupied:

       1Ap   -20.550452     2Ap    -1.254490     3Ap    -0.644017
       4Ap    -0.467450     1App   -0.466567

  @DF-RHF Final Energy:   -75.89271411732892

   => Energetics <=

    Nuclear Repulsion Energy =              7.7344602280508568
    One-Electron Energy =                -120.4883977337219818
    Two-Electron Energy =                  36.8612233883422036
    Total Energy =                        -75.8927141173289215
    Molecular point group: cs

    Geometry (in Angstrom), charge = 0, multiplicity = 1:

       Center              X                  Y                   Z               Mass
    ------------   -----------------  -----------------  -----------------  -----------------
           O          0.046759371022     0.000231788231     0.000000000000    15.994914619560
           H          0.046759371022    -0.999768211769     0.000000000000     1.007825032070
           H         -0.788864521578     0.996089564331     0.000000000000     1.007825032070

  Basis Set: 6-31G
    Blend: 6-31G
  Basis Set: (6-31G AUX)
    Blend: CC-PVDZ-JKFIT

  -Total Gradient:
     Atom            X                  Y                   Z
    ------   -----------------  -----------------  -----------------
       1        0.031272276861    -0.081116160924     0.000000000000
       2        0.038558512777    -0.048248315292     0.000000000000
       3       -0.069830789638     0.129364476217     0.000000000000

*** Psi4 exiting successfully. Buy a developer a beer!
