                               Psi4 1.2a1.dev429

  ==> Input File <==

--------------------------------------------------------------------------
# density-fitted hartree fock energies and gradients with 6-31g
molecule h2o {
0 1
O 0.0000000000 0.0000000000 0.0000000000
H 0.0000000000 0.0000000000 1.0000000000
H 0.0000000000 0.8660254038 -0.5000000000
}

set basis 6-31g

gradient('mp2')
--------------------------------------------------------------------------

    Molecular point group: c2v
  Charge       = 0
  Multiplicity = 1
  Basis Set: 6-31G
    Blend: 6-31G
  Basis Set: (6-31G AUX)
    Blend: CC-PVDZ-JKFIT

    Orbital Energies (a.u.)
    -----------------------

    Doubly Occupied:

       1A1   -20.555261     2A1    -1.318413     1B2    -0.708040
       3A1    -0.525159     1B1    -0.490263

  @DF-RHF Final Energy:   -75.97785650860374

   => Energetics <=

    Nuclear Repulsion Energy =              8.7723559412100265
    One-Electron Energy =                -122.3061527419280452
    Two-Electron Energy =                  37.5559402921142791
    Total Energy =                        -75.9778565086037361
  Basis Set: (6-31G AUX)
    Blend: CC-PVDZ-RI
    Molecular point group: c2v

    Geometry (in Angstrom), charge = 0, multiplicity = 1:

       Center              X                  Y                   Z               Mass
    ------------   -----------------  -----------------  -----------------  -----------------
           O         -0.000000000000     0.000000000000    -0.055957436637    15.994914619560
           H          0.000000000000    -0.866025403788     0.444042563370     1.007825032070
           H         -0.000000000000     0.866025403788     0.444042563370     1.007825032070

  Basis Set: 6-31G
    Blend: 6-31G
  Basis Set: (6-31G AUX)
    Blend: CC-PVDZ-JKFIT
  Basis Set: (6-31G AUX)
    Blend: CC-PVDZ-JKFIT
	 Reference Energy          =     -75.9778565086037361 [Eh]
	 Singles Energy            =      -0.0000000000000000 [Eh]
	 Same-Spin Energy          =      -0.0311067825642074 [Eh]
	 Opposite-Spin Energy      =      -0.1005933508212178 [Eh]
	 Correlation Energy        =      -0.1317001333854252 [Eh]
	 Total Energy              =     -76.1095566419891583 [Eh]

	 ================> DF-SCS-MP2 Energies <==================
	-----------------------------------------------------------
	 SCS Same-Spin Scale       =       0.3333333333333333 [-]
	 SCS Opposite-Spin Scale   =       1.2000000000000000 [-]
	 SCS Same-Spin Energy      =      -0.0103689275214025 [Eh]
	 SCS Opposite-Spin Energy  =      -0.1207120209854614 [Eh]
	 SCS Correlation Energy    =      -0.1310809485068638 [Eh]
	 SCS Total Energy          =     -76.1089374571105992 [Eh]
	-----------------------------------------------------------

  -Total Gradient:
     Atom            X                  Y                   Z
    ------   -----------------  -----------------  -----------------
       1        0.000000000000    -0.000000000011     0.001139732298
       2       -0.000000000000    -0.033677510552    -0.000569866152
       3        0.000000000000     0.033677510563    -0.000569866147

*** Psi4 exiting successfully. Buy a developer a beer!
