                               Psi4 1.2.1 release

  ==> Input File <==

--------------------------------------------------------------------------
# density fitted hartree fock
molecule h2o {
0 1
H 0.0000000000 0.0000000000 1.2000000000
H 0.0000000000 0.9634532617 -0.5562500000
O 0.0000000000 0.0000000000 0.0000000000
}

set basis 6-31g
energy('hf')

--------------------------------------------------------------------------

    Molecular point group: cs

    Geometry (in Angstrom), charge = 0, multiplicity = 1:

       Center              X                  Y                   Z               Mass
    ------------   -----------------  -----------------  -----------------  -----------------
         H            0.053912374844    -1.163977400165     0.000000000000     1.007825032070
         H           -0.909540886856     0.592272599835     0.000000000000     1.007825032070
         O            0.053912374844     0.036022599835     0.000000000000    15.994914619560

  Charge       = 0
  Multiplicity = 1
  Basis Set: 6-31G
    Blend: 6-31G
  Basis Set: (6-31G AUX)
    Blend: CC-PVDZ-JKFIT

    Orbital Energies [Eh]
    ---------------------

    Doubly Occupied:

       1Ap   -20.581830     2Ap    -1.261981     3Ap    -0.628294
       4Ap    -0.503110     1App   -0.484561

  @DF-RHF Final Energy:   -75.92247709329200

   => Energetics <=

    Nuclear Repulsion Energy =              7.5973383176498483
    One-Electron Energy =                -120.1200813047424418
    Two-Electron Energy =                  36.6002658938005965
    Total Energy =                        -75.9224770932920023

  Dipole Moment: [D]
     X:    -2.0159      Y:    -1.2172      Z:     0.0000     Total:     2.3549

*** Psi4 exiting successfully. Buy a developer a beer!
