                               Psi4 1.2a1.dev429

  ==> Input File <==

--------------------------------------------------------------------------
# density-fitted hartree fock energies and gradients with 6-31g
molecule h20 {
0 1
O 0.0000000000 0.0000000000 0.0000000000
H 0.0000000000 0.0000000000 1.0000000000
H 0.0000000000 0.6000000000 -1.0392304845
}

set basis 6-31g

gradient('hf')
--------------------------------------------------------------------------

    Molecular point group: cs
  Charge       = 0
  Multiplicity = 1
  Basis Set: 6-31G
    Blend: 6-31G
  Basis Set: (6-31G AUX)
    Blend: CC-PVDZ-JKFIT

    Orbital Energies (a.u.)
    -----------------------

    Doubly Occupied:

       1Ap   -20.531419     2Ap    -1.252073     3Ap    -0.668442
       4Ap    -0.461404     1App   -0.458990

  @DF-RHF Final Energy:   -75.90747028851044

   => Energetics <=

    Nuclear Repulsion Energy =              8.0102121336266592
    One-Electron Energy =                -121.0907089106080718
    Two-Electron Energy =                  37.1730264884709882
    Total Energy =                        -75.9074702885104386
    Molecular point group: cs

    Geometry (in Angstrom), charge = 0, multiplicity = 1:

       Center              X                  Y                   Z               Mass
    ------------   -----------------  -----------------  -----------------  -----------------
           O          0.033574461982    -0.002195237351     0.000000000000    15.994914619560
           H          0.033574461982    -1.002195237351     0.000000000000     1.007825032070
           H         -0.566425538018     1.037035247149     0.000000000000     1.007825032070

  Basis Set: 6-31G
    Blend: 6-31G
  Basis Set: (6-31G AUX)
    Blend: CC-PVDZ-JKFIT

  -Total Gradient:
     Atom            X                  Y                   Z
    ------   -----------------  -----------------  -----------------
       1        0.009367243879    -0.082950779120     0.000000000000
       2        0.036027970110    -0.055722654899     0.000000000000
       3       -0.045395213989     0.138673434019     0.000000000000

*** Psi4 exiting successfully. Buy a developer a beer!
