                               Psi4 1.2a1.dev429

  ==> Input File <==

--------------------------------------------------------------------------
# density-fitted hartree fock energies and gradients with 6-31g
molecule h20 {
0 1
O 0.0000000000 0.0000000000 0.0000000000
H 0.0000000000 0.0000000000 0.7000000000
H 0.0000000000 0.8457233587 -0.3078181290
}

set basis 6-31g

gradient('hf')
--------------------------------------------------------------------------

    Molecular point group: cs
  Charge       = 0
  Multiplicity = 1
  Basis Set: 6-31G
    Blend: 6-31G
  Basis Set: (6-31G AUX)
    Blend: CC-PVDZ-JKFIT

    Orbital Energies (a.u.)
    -----------------------

    Doubly Occupied:

       1Ap   -20.527994     2Ap    -1.466160     3Ap    -0.819507
       4Ap    -0.572538     1App   -0.513443

  @DF-RHF Final Energy:   -75.85519596964718

   => Energetics <=

    Nuclear Repulsion Energy =             11.1537530349511957
    One-Electron Energy =                -126.2186141181467747
    Two-Electron Energy =                  39.2096651135483967
    Total Energy =                        -75.8551959696471840
    Molecular point group: cs

    Geometry (in Angstrom), charge = 0, multiplicity = 1:

       Center              X                  Y                   Z               Mass
    ------------   -----------------  -----------------  -----------------  -----------------
           O          0.047324511256     0.021945492196     0.000000000000    15.994914619560
           H          0.047324511256    -0.678054507804     0.000000000000     1.007825032070
           H         -0.798398847444     0.329763621196     0.000000000000     1.007825032070

  Basis Set: 6-31G
    Blend: 6-31G
  Basis Set: (6-31G AUX)
    Blend: CC-PVDZ-JKFIT

  -Total Gradient:
     Atom            X                  Y                   Z
    ------   -----------------  -----------------  -----------------
       1       -0.032821886143    -0.698730741578     0.000000000000
       2       -0.020359784782     0.734938955295     0.000000000000
       3        0.053181670925    -0.036208213717     0.000000000000

*** Psi4 exiting successfully. Buy a developer a beer!
