                               Psi4 1.2.1 release

  ==> Input File <==

--------------------------------------------------------------------------
# density fitted hartree fock
molecule h2o {
0 1
H 0.0000000000 0.0000000000 1.1125000000
H 0.0000000000 0.8427281322 -0.1109472634
O 0.0000000000 0.0000000000 0.0000000000
}

set basis 6-31g
energy('hf')

--------------------------------------------------------------------------

    Molecular point group: cs

    Geometry (in Angstrom), charge = 0, multiplicity = 1:

       Center              X                  Y                   Z               Mass
    ------------   -----------------  -----------------  -----------------  -----------------
         H            0.047156906059    -1.056455676204     0.000000000000     1.007825032070
         H           -0.795571226141     0.166991587196     0.000000000000     1.007825032070
         O            0.047156906059     0.056044323796     0.000000000000    15.994914619560

  Charge       = 0
  Multiplicity = 1
  Basis Set: 6-31G
    Blend: 6-31G
  Basis Set: (6-31G AUX)
    Blend: CC-PVDZ-JKFIT

    Orbital Energies [Eh]
    ---------------------

    Doubly Occupied:

       1Ap   -20.568924     2Ap    -1.369315     3Ap    -0.690925
       4Ap    -0.564608     1App   -0.505243

  @DF-RHF Final Energy:   -75.94764755240251

   => Energetics <=

    Nuclear Repulsion Energy =              9.1420144665410081
    One-Electron Energy =                -122.7812914700354128
    Two-Electron Energy =                  37.6916294510918988
    Total Energy =                        -75.9476475524025005

  Dipole Moment: [D]
     X:    -2.0264      Y:    -1.8416      Z:     0.0000     Total:     2.7382

*** Psi4 exiting successfully. Buy a developer a beer!
