                               Psi4 1.2a1.dev429

  ==> Input File <==

--------------------------------------------------------------------------
# density-fitted hartree fock energies and gradients with 6-31g
molecule h2o {
0 1
O 0.0000000000 0.0000000000 0.0000000000
H 0.0000000000 0.0000000000 1.5000000000
H 0.0000000000 0.7000000000 -1.2124355653
}

set basis 6-31g

gradient('mp2')
--------------------------------------------------------------------------

    Molecular point group: cs
  Charge       = 0
  Multiplicity = 1
  Basis Set: 6-31G
    Blend: 6-31G
  Basis Set: (6-31G AUX)
    Blend: CC-PVDZ-JKFIT

    Orbital Energies (a.u.)
    -----------------------

    Doubly Occupied:

       1Ap   -20.577010     2Ap    -1.176756     3Ap    -0.519294
       1App   -0.454646     4Ap    -0.428409

  @DF-RHF Final Energy:   -75.74334909313795

   => Energetics <=

    Nuclear Repulsion Energy =              6.0350520629143940
    One-Electron Energy =                -117.2445729039759925
    Two-Electron Energy =                  35.4661717479236458
    Total Energy =                        -75.7433490931379652
  Basis Set: (6-31G AUX)
    Blend: CC-PVDZ-RI
    Molecular point group: cs

    Geometry (in Angstrom), charge = 0, multiplicity = 1:

       Center              X                  Y                   Z               Mass
    ------------   -----------------  -----------------  -----------------  -----------------
           O          0.039170205645     0.016091368634     0.000000000000    15.994914619560
           H          0.039170205645    -1.483908631366     0.000000000000     1.007825032070
           H         -0.660829794355     1.228526933934     0.000000000000     1.007825032070

  Basis Set: 6-31G
    Blend: 6-31G
  Basis Set: (6-31G AUX)
    Blend: CC-PVDZ-JKFIT
  Basis Set: (6-31G AUX)
    Blend: CC-PVDZ-JKFIT
	 Reference Energy          =     -75.7433490931379509 [Eh]
	 Singles Energy            =      -0.0000000000000000 [Eh]
	 Same-Spin Energy          =      -0.0375244162399893 [Eh]
	 Opposite-Spin Energy      =      -0.1301792514306892 [Eh]
	 Correlation Energy        =      -0.1677036676706785 [Eh]
	 Total Energy              =     -75.9110527608086301 [Eh]

	 ================> DF-SCS-MP2 Energies <==================
	-----------------------------------------------------------
	 SCS Same-Spin Scale       =       0.3333333333333333 [-]
	 SCS Opposite-Spin Scale   =       1.2000000000000000 [-]
	 SCS Same-Spin Energy      =      -0.0125081387466631 [Eh]
	 SCS Opposite-Spin Energy  =      -0.1562151017168271 [Eh]
	 SCS Correlation Energy    =      -0.1687232404634902 [Eh]
	 SCS Total Energy          =     -75.9120723336014436 [Eh]
	-----------------------------------------------------------

  -Total Gradient:
     Atom            X                  Y                   Z
    ------   -----------------  -----------------  -----------------
       1       -0.026154893072    -0.014018080139    -0.000000000000
       2        0.039282461737    -0.092896239034    -0.000000000000
       3       -0.013127568664     0.106914319173     0.000000000000

*** Psi4 exiting successfully. Buy a developer a beer!
