                               Psi4 1.2a1.dev429

  ==> Input File <==

--------------------------------------------------------------------------
# density-fitted hartree fock energies and gradients with 6-31g
molecule h20 {
0 1
O 0.0000000000 0.0000000000 0.0000000000
H 0.0000000000 0.0000000000 1.2000000000
H 0.0000000000 1.0832885283 -0.1910129954
}

set basis 6-31g

gradient('hf')
--------------------------------------------------------------------------

    Molecular point group: cs
  Charge       = 0
  Multiplicity = 1
  Basis Set: 6-31G
    Blend: 6-31G
  Basis Set: (6-31G AUX)
    Blend: CC-PVDZ-JKFIT

    Orbital Energies (a.u.)
    -----------------------

    Doubly Occupied:

       1Ap   -20.600775     2Ap    -1.282555     3Ap    -0.613543
       4Ap    -0.538063     1App   -0.498689

  @DF-RHF Final Energy:   -75.93123504731031

   => Energetics <=

    Nuclear Repulsion Energy =              7.6765541521666059
    One-Electron Energy =                -120.1483280961788580
    Two-Electron Energy =                  36.5405388967019391
    Total Energy =                        -75.9312350473103095
    Molecular point group: cs

    Geometry (in Angstrom), charge = 0, multiplicity = 1:

       Center              X                  Y                   Z               Mass
    ------------   -----------------  -----------------  -----------------  -----------------
           O          0.060618049181     0.056460326377     0.000000000000    15.994914619560
           H          0.060618049181    -1.143539673623     0.000000000000     1.007825032070
           H         -1.022670479119     0.247473321777     0.000000000000     1.007825032070

  Basis Set: 6-31G
    Blend: 6-31G
  Basis Set: (6-31G AUX)
    Blend: CC-PVDZ-JKFIT

  -Total Gradient:
     Atom            X                  Y                   Z
    ------   -----------------  -----------------  -----------------
       1        0.098131970830     0.108266539687     0.000000000000
       2       -0.004587860468    -0.119678741788     0.000000000000
       3       -0.093544110362     0.011412202101     0.000000000000

*** Psi4 exiting successfully. Buy a developer a beer!
