                               Psi4 1.2a1.dev429

  ==> Input File <==

--------------------------------------------------------------------------
# density-fitted hartree fock energies and gradients with 6-31g
molecule h20 {
0 1
O 0.0000000000 0.0000000000 0.0000000000
H 0.0000000000 0.0000000000 1.1000000000
H 0.0000000000 0.7000000000 0.0000000000
}

set basis 6-31g

gradient('hf')
--------------------------------------------------------------------------

    Molecular point group: cs
  Charge       = 0
  Multiplicity = 1
  Basis Set: 6-31G
    Blend: 6-31G
  Basis Set: (6-31G AUX)
    Blend: CC-PVDZ-JKFIT

    Orbital Energies (a.u.)
    -----------------------

    Doubly Occupied:

       1Ap   -20.558417     2Ap    -1.456743     3Ap    -0.720965
       4Ap    -0.585021     1App   -0.515594

  @DF-RHF Final Energy:   -75.82517746905650

   => Energetics <=

    Nuclear Repulsion Energy =             10.3021614356455498
    One-Electron Energy =                -124.5812006744472740
    Two-Electron Energy =                  38.4538617697452452
    Total Energy =                        -75.8251774690564844
    Molecular point group: cs

    Geometry (in Angstrom), charge = 0, multiplicity = 1:

       Center              X                  Y                   Z               Mass
    ------------   -----------------  -----------------  -----------------  -----------------
           O          0.039170205645     0.061553180300     0.000000000000    15.994914619560
           H          0.039170205645    -1.038446819700     0.000000000000     1.007825032070
           H         -0.660829794355     0.061553180300     0.000000000000     1.007825032070

  Basis Set: 6-31G
    Blend: 6-31G
  Basis Set: (6-31G AUX)
    Blend: CC-PVDZ-JKFIT

  -Total Gradient:
     Atom            X                  Y                   Z
    ------   -----------------  -----------------  -----------------
       1       -0.710768155375     0.144686029674     0.000000000000
       2       -0.037450589508    -0.085835104155     0.000000000000
       3        0.748218744882    -0.058850925520     0.000000000000

*** Psi4 exiting successfully. Buy a developer a beer!
