                               Psi4 1.2.1 release

  ==> Input File <==

--------------------------------------------------------------------------
# density fitted hartree fock
molecule h2o {
0 1
H 0.0000000000 0.0000000000 0.8500000000
H 0.0000000000 0.7361215932 -0.4250000000
O 0.0000000000 0.0000000000 0.0000000000
}

set basis 6-31g
energy('hf')

--------------------------------------------------------------------------

    Molecular point group: c2v

    Geometry (in Angstrom), charge = 0, multiplicity = 1:

       Center              X                  Y                   Z               Mass
    ------------   -----------------  -----------------  -----------------  -----------------
         H            0.000000000000    -0.736121593213     0.377436178853     1.007825032070
         H           -0.000000000000     0.736121593213     0.377436178853     1.007825032070
         O            0.000000000000     0.000000000000    -0.047563821140    15.994914619560

  Charge       = 0
  Multiplicity = 1
  Basis Set: 6-31G
    Blend: 6-31G
  Basis Set: (6-31G AUX)
    Blend: CC-PVDZ-JKFIT

    Orbital Energies [Eh]
    ---------------------

    Doubly Occupied:

       1A1   -20.529250     2A1    -1.402285     1B2    -0.806456
       3A1    -0.547532     1B1    -0.503310

  @DF-RHF Final Energy:   -75.95926364677271

   => Energetics <=

    Nuclear Repulsion Energy =             10.3204187545206327
    One-Electron Energy =                -124.9817053073174122
    Two-Electron Energy =                  38.7020229060240695
    Total Energy =                        -75.9592636467727118

  Dipole Moment: [D]
     X:     0.0000      Y:     0.0000      Z:     2.2709     Total:     2.2709

*** Psi4 exiting successfully. Buy a developer a beer!
