                               Psi4 1.2a1.dev429

  ==> Input File <==

--------------------------------------------------------------------------
# density-fitted hartree fock energies and gradients with 6-31g
molecule h2o {
0 1
O 0.0000000000 0.0000000000 0.0000000000
H 0.0000000000 0.0000000000 1.1000000000
H 0.0000000000 1.2802500789 -0.2257426310
}

set basis 6-31g

gradient('mp2')
--------------------------------------------------------------------------

    Molecular point group: cs
  Charge       = 0
  Multiplicity = 1
  Basis Set: 6-31G
    Blend: 6-31G
  Basis Set: (6-31G AUX)
    Blend: CC-PVDZ-JKFIT

    Orbital Energies (a.u.)
    -----------------------

    Doubly Occupied:

       1Ap   -20.608400     2Ap    -1.272304     3Ap    -0.600859
       4Ap    -0.524915     1App   -0.498975

  @DF-RHF Final Energy:   -75.90756530415636

   => Energetics <=

    Nuclear Repulsion Energy =              7.3921654550472606
    One-Electron Energy =                -119.5885549444769822
    Two-Electron Energy =                  36.2888241852733699
    Total Energy =                        -75.9075653041563498
  Basis Set: (6-31G AUX)
    Blend: CC-PVDZ-RI
    Molecular point group: cs

    Geometry (in Angstrom), charge = 0, multiplicity = 1:

       Center              X                  Y                   Z               Mass
    ------------   -----------------  -----------------  -----------------  -----------------
           O          0.071639512669     0.048921201330     0.000000000000    15.994914619560
           H          0.071639512669    -1.051078798670     0.000000000000     1.007825032070
           H         -1.208610566231     0.274663832330     0.000000000000     1.007825032070

  Basis Set: 6-31G
    Blend: 6-31G
  Basis Set: (6-31G AUX)
    Blend: CC-PVDZ-JKFIT
  Basis Set: (6-31G AUX)
    Blend: CC-PVDZ-JKFIT
	 Reference Energy          =     -75.9075653041563640 [Eh]
	 Singles Energy            =      -0.0000000000000000 [Eh]
	 Same-Spin Energy          =      -0.0348478530034606 [Eh]
	 Opposite-Spin Energy      =      -0.1174036756609744 [Eh]
	 Correlation Energy        =      -0.1522515286644350 [Eh]
	 Total Energy              =     -76.0598168328208004 [Eh]

	 ================> DF-SCS-MP2 Energies <==================
	-----------------------------------------------------------
	 SCS Same-Spin Scale       =       0.3333333333333333 [-]
	 SCS Opposite-Spin Scale   =       1.2000000000000000 [-]
	 SCS Same-Spin Energy      =      -0.0116159510011535 [Eh]
	 SCS Opposite-Spin Energy  =      -0.1408844107931693 [Eh]
	 SCS Correlation Energy    =      -0.1525003617943228 [Eh]
	 SCS Total Energy          =     -76.0600656659506882 [Eh]
	-----------------------------------------------------------

  -Total Gradient:
     Atom            X                  Y                   Z
    ------   -----------------  -----------------  -----------------
       1        0.099107814445     0.045191246705     0.000000000000
       2        0.002343525194    -0.065093422782    -0.000000000000
       3       -0.101451339639     0.019902176077    -0.000000000000

*** Psi4 exiting successfully. Buy a developer a beer!
