                               Psi4 1.2a1.dev429

  ==> Input File <==

--------------------------------------------------------------------------
# density-fitted hartree fock energies and gradients with 6-31g
molecule h2o {
0 1
O 0.0000000000 0.0000000000 0.0000000000
H 0.0000000000 0.0000000000 0.9000000000
H 0.0000000000 0.2083778132 -1.1817693036
}

set basis 6-31g

gradient('mp2')
--------------------------------------------------------------------------

    Molecular point group: cs
  Charge       = 0
  Multiplicity = 1
  Basis Set: 6-31G
    Blend: 6-31G
  Basis Set: (6-31G AUX)
    Blend: CC-PVDZ-JKFIT

    Orbital Energies (a.u.)
    -----------------------

    Doubly Occupied:

       1Ap   -20.503312     2Ap    -1.264049     3Ap    -0.697794
       4Ap    -0.449778     1App   -0.449629

  @DF-RHF Final Energy:   -75.89095215953101

   => Energetics <=

    Nuclear Repulsion Energy =              8.4845774171343127
    One-Electron Energy =                -122.0219351438383910
    Two-Electron Energy =                  37.6464055671730620
    Total Energy =                        -75.8909521595310110
  Basis Set: (6-31G AUX)
    Blend: CC-PVDZ-RI
    Molecular point group: cs

    Geometry (in Angstrom), charge = 0, multiplicity = 1:

       Center              X                  Y                   Z               Mass
    ------------   -----------------  -----------------  -----------------  -----------------
           O          0.011660288279    -0.015767087952     0.000000000000    15.994914619560
           H          0.011660288279    -0.915767087952     0.000000000000     1.007825032070
           H         -0.196717524921     1.166002215648     0.000000000000     1.007825032070

  Basis Set: 6-31G
    Blend: 6-31G
  Basis Set: (6-31G AUX)
    Blend: CC-PVDZ-JKFIT
  Basis Set: (6-31G AUX)
    Blend: CC-PVDZ-JKFIT
	 Reference Energy          =     -75.8909521595310110 [Eh]
	 Singles Energy            =      -0.0000000000000000 [Eh]
	 Same-Spin Energy          =      -0.0316816709692451 [Eh]
	 Opposite-Spin Energy      =      -0.0993000170779259 [Eh]
	 Correlation Energy        =      -0.1309816880471710 [Eh]
	 Total Energy              =     -76.0219338475781825 [Eh]

	 ================> DF-SCS-MP2 Energies <==================
	-----------------------------------------------------------
	 SCS Same-Spin Scale       =       0.3333333333333333 [-]
	 SCS Opposite-Spin Scale   =       1.2000000000000000 [-]
	 SCS Same-Spin Energy      =      -0.0105605569897484 [Eh]
	 SCS Opposite-Spin Energy  =      -0.1191600204935111 [Eh]
	 SCS Correlation Energy    =      -0.1297205774832595 [Eh]
	 SCS Total Energy          =     -76.0206727370142659 [Eh]
	-----------------------------------------------------------

  -Total Gradient:
     Atom            X                  Y                   Z
    ------   -----------------  -----------------  -----------------
       1       -0.009985375395    -0.210616600445    -0.000000000000
       2        0.019901976821     0.068418571302     0.000000000000
       3       -0.009916601426     0.142198029143     0.000000000000

*** Psi4 exiting successfully. Buy a developer a beer!
