                               Psi4 1.2a1.dev429

  ==> Input File <==

--------------------------------------------------------------------------
# density-fitted hartree fock energies and gradients with 6-31g
molecule h2o {
0 1
O 0.0000000000 0.0000000000 0.0000000000
H 0.0000000000 0.0000000000 1.0000000000
H 0.0000000000 0.2257426310 -1.2802500789
}

set basis 6-31g

gradient('mp2')
--------------------------------------------------------------------------

    Molecular point group: cs
  Charge       = 0
  Multiplicity = 1
  Basis Set: 6-31G
    Blend: 6-31G
  Basis Set: (6-31G AUX)
    Blend: CC-PVDZ-JKFIT

    Orbital Energies (a.u.)
    -----------------------

    Doubly Occupied:

       1Ap   -20.505610     2Ap    -1.218912     3Ap    -0.637568
       1App   -0.434965     4Ap    -0.434112

  @DF-RHF Final Energy:   -75.85923258303546

   => Energetics <=

    Nuclear Repulsion Energy =              7.7208336661760510
    One-Electron Energy =                -120.6977980217093460
    Two-Electron Energy =                  37.1177317724978408
    Total Energy =                        -75.8592325830354639
  Basis Set: (6-31G AUX)
    Blend: CC-PVDZ-RI
    Molecular point group: cs

    Geometry (in Angstrom), charge = 0, multiplicity = 1:

       Center              X                  Y                   Z               Mass
    ------------   -----------------  -----------------  -----------------  -----------------
           O          0.012631978970    -0.015682076032     0.000000000000    15.994914619560
           H          0.012631978970    -1.015682076032     0.000000000000     1.007825032070
           H         -0.213110652030     1.264568002868     0.000000000000     1.007825032070

  Basis Set: 6-31G
    Blend: 6-31G
  Basis Set: (6-31G AUX)
    Blend: CC-PVDZ-JKFIT
  Basis Set: (6-31G AUX)
    Blend: CC-PVDZ-JKFIT
	 Reference Energy          =     -75.8592325830354639 [Eh]
	 Singles Energy            =      -0.0000000000000000 [Eh]
	 Same-Spin Energy          =      -0.0330220853866567 [Eh]
	 Opposite-Spin Energy      =      -0.1037428358551166 [Eh]
	 Correlation Energy        =      -0.1367649212417733 [Eh]
	 Total Energy              =     -75.9959975042772413 [Eh]

	 ================> DF-SCS-MP2 Energies <==================
	-----------------------------------------------------------
	 SCS Same-Spin Scale       =       0.3333333333333333 [-]
	 SCS Opposite-Spin Scale   =       1.2000000000000000 [-]
	 SCS Same-Spin Energy      =      -0.0110073617955522 [Eh]
	 SCS Opposite-Spin Energy  =      -0.1244914030261400 [Eh]
	 SCS Correlation Energy    =      -0.1354987648216922 [Eh]
	 SCS Total Energy          =     -75.9947313478571544 [Eh]
	-----------------------------------------------------------

  -Total Gradient:
     Atom            X                  Y                   Z
    ------   -----------------  -----------------  -----------------
       1       -0.016642701640    -0.101802269787     0.000000000000
       2        0.023612226456    -0.042321862012    -0.000000000000
       3       -0.006969524816     0.144124131798    -0.000000000000

*** Psi4 exiting successfully. Buy a developer a beer!
