                               Psi4 1.3.1 release

  ==> Input File <==

--------------------------------------------------------------------------
# density fitted hartree fock
molecule h2o {
0 1
H 0.0000000000 0.0000000000 1.1500000000
H 0.0000000000 0.8774351210 -0.2002688406
O 0.0000000000 0.0000000000 0.0000000000
}

set basis 6-31g
energy('hf')

--------------------------------------------------------------------------

    Molecular point group: cs

    Geometry (in Angstrom), charge = 0, multiplicity = 1:

       Center              X                  Y                   Z               Mass
    ------------   -----------------  -----------------  -----------------  -----------------
         H            0.049099020193    -1.096855478819     0.000000000000     1.007825032230
         H           -0.828336100807     0.253413361781     0.000000000000     1.007825032230
         O            0.049099020193     0.053144521181     0.000000000000    15.994914619570

  Charge       = 0
  Multiplicity = 1
  Basis Set: 6-31G
    Blend: 6-31G
  Basis Set: (6-31G AUX)
    Blend: CC-PVDZ-JKFIT

    Orbital Energies [Eh]
    ---------------------

    Doubly Occupied:

       1Ap   -20.573396     2Ap    -1.339172     3Ap    -0.677480
       4Ap    -0.548445     1App   -0.500432

  @DF-RHF Final Energy:   -75.95407222193735

   => Energetics <=

    Nuclear Repulsion Energy =              8.7136471511792486
    One-Electron Energy =                -122.0575784445544656
    Two-Electron Energy =                  37.3898590714378614
    Total Energy =                        -75.9540722219373663

  Dipole Moment: [D]
     X:    -2.0431      Y:    -1.7139      Z:     0.0000     Total:     2.6668

*** Psi4 exiting successfully. Buy a developer a beer!
