                               Psi4 1.2a1.dev429

  ==> Input File <==

--------------------------------------------------------------------------
# density-fitted hartree fock energies and gradients with 6-31g
molecule h2o {
0 1
O 0.0000000000 0.0000000000 0.0000000000
H 0.0000000000 0.0000000000 1.0000000000
H 0.0000000000 1.1490666647 -0.9641814145
}

set basis 6-31g

gradient('mp2')
--------------------------------------------------------------------------

    Molecular point group: cs
  Charge       = 0
  Multiplicity = 1
  Basis Set: 6-31G
    Blend: 6-31G
  Basis Set: (6-31G AUX)
    Blend: CC-PVDZ-JKFIT

    Orbital Energies (a.u.)
    -----------------------

    Doubly Occupied:

       1Ap   -20.575461     2Ap    -1.257170     3Ap    -0.614582
       1App   -0.476789     4Ap    -0.461242

  @DF-RHF Final Energy:   -75.85241473785901

   => Energetics <=

    Nuclear Repulsion Energy =              7.2882399829517315
    One-Electron Energy =                -119.5108228101711205
    Two-Electron Energy =                  36.3701680893603765
    Total Energy =                        -75.8524147378590072
  Basis Set: (6-31G AUX)
    Blend: CC-PVDZ-RI
    Molecular point group: cs

    Geometry (in Angstrom), charge = 0, multiplicity = 1:

       Center              X                  Y                   Z               Mass
    ------------   -----------------  -----------------  -----------------  -----------------
           O          0.064298825081     0.002004316229     0.000000000000    15.994914619560
           H          0.064298825081    -0.997995683771     0.000000000000     1.007825032070
           H         -1.084767839619     0.966185730729     0.000000000000     1.007825032070

  Basis Set: 6-31G
    Blend: 6-31G
  Basis Set: (6-31G AUX)
    Blend: CC-PVDZ-JKFIT
  Basis Set: (6-31G AUX)
    Blend: CC-PVDZ-JKFIT
	 Reference Energy          =     -75.8524147378590072 [Eh]
	 Singles Energy            =      -0.0000000000000000 [Eh]
	 Same-Spin Energy          =      -0.0345774587169211 [Eh]
	 Opposite-Spin Energy      =      -0.1184557395062321 [Eh]
	 Correlation Energy        =      -0.1530331982231532 [Eh]
	 Total Energy              =     -76.0054479360821631 [Eh]

	 ================> DF-SCS-MP2 Energies <==================
	-----------------------------------------------------------
	 SCS Same-Spin Scale       =       0.3333333333333333 [-]
	 SCS Opposite-Spin Scale   =       1.2000000000000000 [-]
	 SCS Same-Spin Energy      =      -0.0115258195723070 [Eh]
	 SCS Opposite-Spin Energy  =      -0.1421468874074785 [Eh]
	 SCS Correlation Energy    =      -0.1536727069797856 [Eh]
	 SCS Total Energy          =     -76.0060874448387978 [Eh]
	-----------------------------------------------------------

  -Total Gradient:
     Atom            X                  Y                   Z
    ------   -----------------  -----------------  -----------------
       1        0.026406794653    -0.073320522199    -0.000000000000
       2        0.038057339707    -0.013891528519     0.000000000000
       3       -0.064464134361     0.087212050718    -0.000000000000

*** Psi4 exiting successfully. Buy a developer a beer!
