                               Psi4 1.2a1.dev429

  ==> Input File <==

--------------------------------------------------------------------------
# density-fitted hartree fock energies and gradients with 6-31g
molecule h2o {
0 1
O 0.0000000000 0.0000000000 0.0000000000
H 0.0000000000 0.0000000000 1.0000000000
H 0.0000000000 0.1736481777 -0.9848077530
}

set basis 6-31g

gradient('mp2')
--------------------------------------------------------------------------

    Molecular point group: c2v
  Charge       = 0
  Multiplicity = 1
  Basis Set: 6-31G
    Blend: 6-31G
  Basis Set: (6-31G AUX)
    Blend: CC-PVDZ-JKFIT

    Orbital Energies (a.u.)
    -----------------------

    Doubly Occupied:

       1A1   -20.508094     2A1    -1.271941     1B2    -0.734203
       3A1    -0.459969     1B1    -0.459269

  @DF-RHF Final Energy:   -75.93536773387498

   => Energetics <=

    Nuclear Repulsion Energy =              8.7324346272470521
    One-Electron Energy =                -122.4686517389317828
    Two-Electron Energy =                  37.8008493778097474
    Total Energy =                        -75.9353677338749833
  Basis Set: (6-31G AUX)
    Blend: CC-PVDZ-RI
    Molecular point group: c2v

    Geometry (in Angstrom), charge = 0, multiplicity = 1:

       Center              X                  Y                   Z               Mass
    ------------   -----------------  -----------------  -----------------  -----------------
           O          0.000000000000     0.000000000000    -0.009754023906    15.994914619560
           H          0.000000000000    -0.996194698087     0.077401718858     1.007825032070
           H         -0.000000000000     0.996194698087     0.077401718858     1.007825032070

  Basis Set: 6-31G
    Blend: 6-31G
  Basis Set: (6-31G AUX)
    Blend: CC-PVDZ-JKFIT
  Basis Set: (6-31G AUX)
    Blend: CC-PVDZ-JKFIT
	 Reference Energy          =     -75.9353677338749833 [Eh]
	 Singles Energy            =      -0.0000000000000000 [Eh]
	 Same-Spin Energy          =      -0.0310008780049117 [Eh]
	 Opposite-Spin Energy      =      -0.0970149730932365 [Eh]
	 Correlation Energy        =      -0.1280158510981482 [Eh]
	 Total Energy              =     -76.0633835849731383 [Eh]

	 ================> DF-SCS-MP2 Energies <==================
	-----------------------------------------------------------
	 SCS Same-Spin Scale       =       0.3333333333333333 [-]
	 SCS Opposite-Spin Scale   =       1.2000000000000000 [-]
	 SCS Same-Spin Energy      =      -0.0103336260016372 [Eh]
	 SCS Opposite-Spin Energy  =      -0.1164179677118838 [Eh]
	 SCS Correlation Energy    =      -0.1267515937135210 [Eh]
	 SCS Total Energy          =     -76.0621193275885048 [Eh]
	-----------------------------------------------------------

  -Total Gradient:
     Atom            X                  Y                   Z
    ------   -----------------  -----------------  -----------------
       1        0.000000000000     0.000000000017     0.020590972508
       2        0.000000000000    -0.057913174477    -0.010295486254
       3       -0.000000000000     0.057913174460    -0.010295486254

*** Psi4 exiting successfully. Buy a developer a beer!
