                               Psi4 1.3.1 release

  ==> Input File <==

--------------------------------------------------------------------------
# density fitted hartree fock
molecule h2o {
0 1
H 0.0000000000 0.0000000000 1.0000000000
H 0.0000000000 0.8108719811 -0.3904953652
O 0.0000000000 0.0000000000 0.0000000000
}

set basis 6-31g
energy('hf')

--------------------------------------------------------------------------

    Molecular point group: cs

    Geometry (in Angstrom), charge = 0, multiplicity = 1:

       Center              X                  Y                   Z               Mass
    ------------   -----------------  -----------------  -----------------  -----------------
         H            0.045374317509    -0.965893683014     0.000000000000     1.007825032230
         H           -0.765497663591     0.424601682186     0.000000000000     1.007825032230
         O            0.045374317509     0.034106316986     0.000000000000    15.994914619570

  Charge       = 0
  Multiplicity = 1
  Basis Set: 6-31G
    Blend: 6-31G
  Basis Set: (6-31G AUX)
    Blend: CC-PVDZ-JKFIT

    Orbital Energies [Eh]
    ---------------------

    Doubly Occupied:

       1Ap   -20.549907     2Ap    -1.350471     3Ap    -0.732662
       4Ap    -0.539925     1App   -0.496272

  @DF-RHF Final Energy:   -75.97944107714683

   => Energetics <=

    Nuclear Repulsion Energy =              9.2659669618818530
    One-Electron Energy =                -123.1523344123816628
    Two-Electron Energy =                  37.9069263733529667
    Total Energy =                        -75.9794410771468449

  Dipole Moment: [D]
     X:    -2.0030      Y:    -1.3584      Z:     0.0000     Total:     2.4202

*** Psi4 exiting successfully. Buy a developer a beer!
