                               Psi4 1.2a1.dev429

  ==> Input File <==

--------------------------------------------------------------------------
# density-fitted hartree fock energies and gradients with 6-31g
molecule h2o {
0 1
O 0.0000000000 0.0000000000 0.0000000000
H 0.0000000000 0.0000000000 1.1000000000
H 0.0000000000 1.0392304845 -0.6000000000
}

set basis 6-31g

gradient('mp2')
--------------------------------------------------------------------------

    Molecular point group: cs
  Charge       = 0
  Multiplicity = 1
  Basis Set: 6-31G
    Blend: 6-31G
  Basis Set: (6-31G AUX)
    Blend: CC-PVDZ-JKFIT

    Orbital Energies (a.u.)
    -----------------------

    Doubly Occupied:

       1Ap   -20.580694     2Ap    -1.264170     3Ap    -0.631336
       4Ap    -0.503784     1App   -0.484679

  @DF-RHF Final Energy:   -75.92492314251936

   => Energetics <=

    Nuclear Repulsion Energy =              7.6419960022326743
    One-Electron Energy =                -120.2045144715260108
    Two-Electron Energy =                  36.6375953267739689
    Total Energy =                        -75.9249231425193614
  Basis Set: (6-31G AUX)
    Blend: CC-PVDZ-RI
    Molecular point group: cs

    Geometry (in Angstrom), charge = 0, multiplicity = 1:

       Center              X                  Y                   Z               Mass
    ------------   -----------------  -----------------  -----------------  -----------------
           O          0.058152673987     0.027978718318     0.000000000000    15.994914619560
           H          0.058152673987    -1.072021281682     0.000000000000     1.007825032070
           H         -0.981077810513     0.627978718318     0.000000000000     1.007825032070

  Basis Set: 6-31G
    Blend: 6-31G
  Basis Set: (6-31G AUX)
    Blend: CC-PVDZ-JKFIT
  Basis Set: (6-31G AUX)
    Blend: CC-PVDZ-JKFIT
	 Reference Energy          =     -75.9249231425193614 [Eh]
	 Singles Energy            =      -0.0000000000000000 [Eh]
	 Same-Spin Energy          =      -0.0336778935861933 [Eh]
	 Opposite-Spin Energy      =      -0.1111609782071443 [Eh]
	 Correlation Energy        =      -0.1448388717933376 [Eh]
	 Total Energy              =     -76.0697620143127011 [Eh]

	 ================> DF-SCS-MP2 Energies <==================
	-----------------------------------------------------------
	 SCS Same-Spin Scale       =       0.3333333333333333 [-]
	 SCS Opposite-Spin Scale   =       1.2000000000000000 [-]
	 SCS Same-Spin Energy      =      -0.0112259645287311 [Eh]
	 SCS Opposite-Spin Energy  =      -0.1333931738485732 [Eh]
	 SCS Correlation Energy    =      -0.1446191383773043 [Eh]
	 SCS Total Energy          =     -76.0695422808966697 [Eh]
	-----------------------------------------------------------

  -Total Gradient:
     Atom            X                  Y                   Z
    ------   -----------------  -----------------  -----------------
       1        0.055148880128     0.005622132030     0.000000000000
       2        0.023999060098    -0.076720632588    -0.000000000000
       3       -0.079147940226     0.071098500558    -0.000000000000

*** Psi4 exiting successfully. Buy a developer a beer!
