                               Psi4 1.2a1.dev429

  ==> Input File <==

--------------------------------------------------------------------------
# density-fitted hartree fock energies and gradients with 6-31g
molecule h20 {
0 1
O 0.0000000000 0.0000000000 0.0000000000
H 0.0000000000 0.0000000000 0.8000000000
H 0.0000000000 0.5785088487 -0.6894399988
}

set basis 6-31g

gradient('hf')
--------------------------------------------------------------------------

    Molecular point group: cs
  Charge       = 0
  Multiplicity = 1
  Basis Set: 6-31G
    Blend: 6-31G
  Basis Set: (6-31G AUX)
    Blend: CC-PVDZ-JKFIT

    Orbital Energies (a.u.)
    -----------------------

    Doubly Occupied:

       1Ap   -20.515425     2Ap    -1.382876     3Ap    -0.833612
       4Ap    -0.515436     1App   -0.495720

  @DF-RHF Final Energy:   -75.93840189191161

   => Energetics <=

    Nuclear Repulsion Energy =             10.3267516128859445
    One-Electron Energy =                -125.0441700949202044
    Two-Electron Energy =                  38.7790165901226516
    Total Energy =                        -75.9384018919116102
    Molecular point group: cs

    Geometry (in Angstrom), charge = 0, multiplicity = 1:

       Center              X                  Y                   Z               Mass
    ------------   -----------------  -----------------  -----------------  -----------------
           O          0.032371872245     0.006186654262     0.000000000000    15.994914619560
           H          0.032371872245    -0.793813345738     0.000000000000     1.007825032070
           H         -0.546136976455     0.695626653062     0.000000000000     1.007825032070

  Basis Set: 6-31G
    Blend: 6-31G
  Basis Set: (6-31G AUX)
    Blend: CC-PVDZ-JKFIT

  -Total Gradient:
     Atom            X                  Y                   Z
    ------   -----------------  -----------------  -----------------
       1       -0.074357986702    -0.257485739148     0.000000000000
       2        0.027799673501     0.274528563712     0.000000000000
       3        0.046558313201    -0.017042824564     0.000000000000

*** Psi4 exiting successfully. Buy a developer a beer!
