                               Psi4 1.2a1.dev429

  ==> Input File <==

--------------------------------------------------------------------------
# density-fitted hartree fock energies and gradients with 6-31g
molecule h2o {
0 1
O 0.0000000000 0.0000000000 0.0000000000
H 0.0000000000 0.0000000000 1.1000000000
H 0.0000000000 0.5142300877 -0.6128355545
}

set basis 6-31g

gradient('mp2')
--------------------------------------------------------------------------

    Molecular point group: cs
  Charge       = 0
  Multiplicity = 1
  Basis Set: 6-31G
    Blend: 6-31G
  Basis Set: (6-31G AUX)
    Blend: CC-PVDZ-JKFIT

    Orbital Energies (a.u.)
    -----------------------

    Doubly Occupied:

       1Ap   -20.524753     2Ap    -1.345449     3Ap    -0.756712
       4Ap    -0.497145     1App   -0.482769

  @DF-RHF Final Energy:   -75.91538251092344

   => Energetics <=

    Nuclear Repulsion Energy =              9.4362341219019648
    One-Electron Energy =                -123.4895775985036721
    Two-Electron Energy =                  38.1379609656782819
    Total Energy =                        -75.9153825109234219
  Basis Set: (6-31G AUX)
    Blend: CC-PVDZ-RI
    Molecular point group: cs

    Geometry (in Angstrom), charge = 0, multiplicity = 1:

       Center              X                  Y                   Z               Mass
    ------------   -----------------  -----------------  -----------------  -----------------
           O          0.028774997549     0.027260473590     0.000000000000    15.994914619560
           H          0.028774997549    -1.072739526410     0.000000000000     1.007825032070
           H         -0.485455090151     0.640096028090     0.000000000000     1.007825032070

  Basis Set: 6-31G
    Blend: 6-31G
  Basis Set: (6-31G AUX)
    Blend: CC-PVDZ-JKFIT
  Basis Set: (6-31G AUX)
    Blend: CC-PVDZ-JKFIT
	 Reference Energy          =     -75.9153825109234361 [Eh]
	 Singles Energy            =      -0.0000000000000000 [Eh]
	 Same-Spin Energy          =      -0.0301397621758055 [Eh]
	 Opposite-Spin Energy      =      -0.0960508986647006 [Eh]
	 Correlation Energy        =      -0.1261906608405061 [Eh]
	 Total Energy              =     -76.0415731717639432 [Eh]

	 ================> DF-SCS-MP2 Energies <==================
	-----------------------------------------------------------
	 SCS Same-Spin Scale       =       0.3333333333333333 [-]
	 SCS Opposite-Spin Scale   =       1.2000000000000000 [-]
	 SCS Same-Spin Energy      =      -0.0100465873919352 [Eh]
	 SCS Opposite-Spin Energy  =      -0.1152610783976407 [Eh]
	 SCS Correlation Energy    =      -0.1253076657895758 [Eh]
	 SCS Total Energy          =     -76.0406901767130137 [Eh]
	-----------------------------------------------------------

  -Total Gradient:
     Atom            X                  Y                   Z
    ------   -----------------  -----------------  -----------------
       1       -0.253333934878     0.315524671711     0.000000000000
       2        0.027540011224    -0.105345347013    -0.000000000000
       3        0.225793923655    -0.210179324698    -0.000000000000

*** Psi4 exiting successfully. Buy a developer a beer!
