                               Psi4 1.2a1.dev429

  ==> Input File <==

--------------------------------------------------------------------------
# density-fitted hartree fock energies and gradients with 6-31g
molecule h20 {
0 1
O 0.0000000000 0.0000000000 0.0000000000
H 0.0000000000 0.0000000000 0.7000000000
H 0.0000000000 0.1215537244 -0.6893654271
}

set basis 6-31g

gradient('hf')
--------------------------------------------------------------------------

    Molecular point group: c2v
  Charge       = 0
  Multiplicity = 1
  Basis Set: 6-31G
    Blend: 6-31G
  Basis Set: (6-31G AUX)
    Blend: CC-PVDZ-JKFIT

    Orbital Energies (a.u.)
    -----------------------

    Doubly Occupied:

       1A1   -20.491418     2A1    -1.460964     1B2    -0.997524
       3A1    -0.519406     1B1    -0.518015

  @DF-RHF Final Energy:   -75.72367276554661

   => Energetics <=

    Nuclear Repulsion Energy =             12.4749066103376922
    One-Electron Energy =                -128.4225066321472752
    Two-Electron Energy =                  40.2239272562629822
    Total Energy =                        -75.7236727655465955
    Molecular point group: c2v

    Geometry (in Angstrom), charge = 0, multiplicity = 1:

       Center              X                  Y                   Z               Mass
    ------------   -----------------  -----------------  -----------------  -----------------
           O         -0.000000000000     0.000000000000    -0.006827816735    15.994914619560
           H          0.000000000000    -0.697336288661     0.054181203205     1.007825032070
           H         -0.000000000000     0.697336288661     0.054181203205     1.007825032070

  Basis Set: 6-31G
    Blend: 6-31G
  Basis Set: (6-31G AUX)
    Blend: CC-PVDZ-JKFIT

  -Total Gradient:
     Atom            X                  Y                   Z
    ------   -----------------  -----------------  -----------------
       1       -0.000000000000     0.000000000000     0.141038412741
       2       -0.000000000000     0.690573910699    -0.070519206371
       3        0.000000000000    -0.690573910699    -0.070519206371

*** Psi4 exiting successfully. Buy a developer a beer!
