                               Psi4 1.2a1.dev429

  ==> Input File <==

--------------------------------------------------------------------------
# density-fitted hartree fock energies and gradients with 6-31g
molecule h2o {
0 1
O 0.0000000000 0.0000000000 0.0000000000
H 0.0000000000 0.0000000000 1.1000000000
H 0.0000000000 0.8660254038 -0.5000000000
}

set basis 6-31g

gradient('mp2')
--------------------------------------------------------------------------

    Molecular point group: cs
  Charge       = 0
  Multiplicity = 1
  Basis Set: 6-31G
    Blend: 6-31G
  Basis Set: (6-31G AUX)
    Blend: CC-PVDZ-JKFIT

    Orbital Energies (a.u.)
    -----------------------

    Doubly Occupied:

       1Ap   -20.563612     2Ap    -1.299058     3Ap    -0.680537
       4Ap    -0.517584     1App   -0.487716

  @DF-RHF Final Energy:   -75.96225899922852

   => Energetics <=

    Nuclear Repulsion Energy =              8.3728412848826430
    One-Electron Energy =                -121.5731856260426014
    Two-Electron Energy =                  37.2380853419314377
    Total Energy =                        -75.9622589992285242
  Basis Set: (6-31G AUX)
    Blend: CC-PVDZ-RI
    Molecular point group: cs

    Geometry (in Angstrom), charge = 0, multiplicity = 1:

       Center              X                  Y                   Z               Mass
    ------------   -----------------  -----------------  -----------------  -----------------
           O          0.048460561658     0.033574461982     0.000000000000    15.994914619560
           H          0.048460561658    -1.066425538018     0.000000000000     1.007825032070
           H         -0.817564842142     0.533574461982     0.000000000000     1.007825032070

  Basis Set: 6-31G
    Blend: 6-31G
  Basis Set: (6-31G AUX)
    Blend: CC-PVDZ-JKFIT
  Basis Set: (6-31G AUX)
    Blend: CC-PVDZ-JKFIT
	 Reference Energy          =     -75.9622589992285242 [Eh]
	 Singles Energy            =      -0.0000000000000000 [Eh]
	 Same-Spin Energy          =      -0.0319622754009893 [Eh]
	 Opposite-Spin Energy      =      -0.1039798178101340 [Eh]
	 Correlation Energy        =      -0.1359420932111232 [Eh]
	 Total Energy              =     -76.0982010924396519 [Eh]

	 ================> DF-SCS-MP2 Energies <==================
	-----------------------------------------------------------
	 SCS Same-Spin Scale       =       0.3333333333333333 [-]
	 SCS Opposite-Spin Scale   =       1.2000000000000000 [-]
	 SCS Same-Spin Energy      =      -0.0106540918003298 [Eh]
	 SCS Opposite-Spin Energy  =      -0.1247757813721608 [Eh]
	 SCS Correlation Energy    =      -0.1354298731724905 [Eh]
	 SCS Total Energy          =     -76.0976888724010081 [Eh]
	-----------------------------------------------------------

  -Total Gradient:
     Atom            X                  Y                   Z
    ------   -----------------  -----------------  -----------------
       1       -0.007622002947     0.053584605935    -0.000000000000
       2        0.018966992413    -0.084225955244     0.000000000000
       3       -0.011344989466     0.030641349309    -0.000000000000

*** Psi4 exiting successfully. Buy a developer a beer!
