                               Psi4 1.2a1.dev429

  ==> Input File <==

--------------------------------------------------------------------------
# density-fitted hartree fock energies and gradients with 6-31g
molecule h2o {
0 1
O 0.0000000000 0.0000000000 0.0000000000
H 0.0000000000 0.0000000000 1.4000000000
H 0.0000000000 0.8000000000 0.0000000000
}

set basis 6-31g

gradient('mp2')
--------------------------------------------------------------------------

    Molecular point group: cs
  Charge       = 0
  Multiplicity = 1
  Basis Set: 6-31G
    Blend: 6-31G
  Basis Set: (6-31G AUX)
    Blend: CC-PVDZ-JKFIT

    Orbital Energies (a.u.)
    -----------------------

    Doubly Occupied:

       1Ap   -20.589822     2Ap    -1.374720     3Ap    -0.668976
       4Ap    -0.525153     1App   -0.511044

  @DF-RHF Final Energy:   -75.85548289805790

   => Energetics <=

    Nuclear Repulsion Energy =              8.6438236223620244
    One-Electron Energy =                -121.6591850477278030
    Two-Electron Energy =                  37.1598785273078818
    Total Energy =                        -75.8554828980579003
  Basis Set: (6-31G AUX)
    Blend: CC-PVDZ-RI
    Molecular point group: cs

    Geometry (in Angstrom), charge = 0, multiplicity = 1:

       Center              X                  Y                   Z               Mass
    ------------   -----------------  -----------------  -----------------  -----------------
           O          0.044765949309     0.078340411291     0.000000000000    15.994914619560
           H          0.044765949309    -1.321659588709     0.000000000000     1.007825032070
           H         -0.755234050691     0.078340411291     0.000000000000     1.007825032070

  Basis Set: 6-31G
    Blend: 6-31G
  Basis Set: (6-31G AUX)
    Blend: CC-PVDZ-JKFIT
  Basis Set: (6-31G AUX)
    Blend: CC-PVDZ-JKFIT
	 Reference Energy          =     -75.8554828980579003 [Eh]
	 Singles Energy            =      -0.0000000000000000 [Eh]
	 Same-Spin Energy          =      -0.0315275719896733 [Eh]
	 Opposite-Spin Energy      =      -0.1095780819494223 [Eh]
	 Correlation Energy        =      -0.1411056539390956 [Eh]
	 Total Energy              =     -75.9965885519969930 [Eh]

	 ================> DF-SCS-MP2 Energies <==================
	-----------------------------------------------------------
	 SCS Same-Spin Scale       =       0.3333333333333333 [-]
	 SCS Opposite-Spin Scale   =       1.2000000000000000 [-]
	 SCS Same-Spin Energy      =      -0.0105091906632244 [Eh]
	 SCS Opposite-Spin Energy  =      -0.1314936983393068 [Eh]
	 SCS Correlation Energy    =      -0.1420028890025312 [Eh]
	 SCS Total Energy          =     -75.9974857870604268 [Eh]
	-----------------------------------------------------------

  -Total Gradient:
     Atom            X                  Y                   Z
    ------   -----------------  -----------------  -----------------
       1       -0.326900706715     0.123085618171    -0.000000000000
       2       -0.012076364251    -0.101951985697     0.000000000000
       3        0.338977070966    -0.021133632474     0.000000000000

*** Psi4 exiting successfully. Buy a developer a beer!
