                               Psi4 1.2a1.dev429

  ==> Input File <==

--------------------------------------------------------------------------
# density-fitted hartree fock energies and gradients with 6-31g
molecule h20 {
0 1
O 0.0000000000 0.0000000000 0.0000000000
H 0.0000000000 0.0000000000 1.1000000000
H 0.0000000000 0.5785088487 -0.6894399988
}

set basis 6-31g

gradient('hf')
--------------------------------------------------------------------------

    Molecular point group: cs
  Charge       = 0
  Multiplicity = 1
  Basis Set: 6-31G
    Blend: 6-31G
  Basis Set: (6-31G AUX)
    Blend: CC-PVDZ-JKFIT

    Orbital Energies (a.u.)
    -----------------------

    Doubly Occupied:

       1Ap   -20.532781     2Ap    -1.306545     3Ap    -0.725336
       4Ap    -0.490242     1App   -0.476976

  @DF-RHF Final Energy:   -75.94516660391497

   => Energetics <=

    Nuclear Repulsion Energy =              8.8337419199046607
    One-Electron Energy =                -122.4940578433467238
    Two-Electron Energy =                  37.7151493195270717
    Total Energy =                        -75.9451666039149842
    Molecular point group: cs

    Geometry (in Angstrom), charge = 0, multiplicity = 1:

       Center              X                  Y                   Z               Mass
    ------------   -----------------  -----------------  -----------------  -----------------
           O          0.032371872245     0.022973885252     0.000000000000    15.994914619560
           H          0.032371872245    -1.077026114748     0.000000000000     1.007825032070
           H         -0.546136976455     0.712413884052     0.000000000000     1.007825032070

  Basis Set: 6-31G
    Blend: 6-31G
  Basis Set: (6-31G AUX)
    Blend: CC-PVDZ-JKFIT

  -Total Gradient:
     Atom            X                  Y                   Z
    ------   -----------------  -----------------  -----------------
       1       -0.092008838427     0.141293957024     0.000000000000
       2        0.028633426420    -0.120210832067     0.000000000000
       3        0.063375412007    -0.021083124957     0.000000000000

*** Psi4 exiting successfully. Buy a developer a beer!
