                               Psi4 1.2a1.dev429

  ==> Input File <==

--------------------------------------------------------------------------
# density-fitted hartree fock energies and gradients with 6-31g
molecule h2o {
0 1
O 0.0000000000 0.0000000000 0.0000000000
H 0.0000000000 0.0000000000 1.5000000000
H 0.0000000000 0.9192533317 -0.7713451316
}

set basis 6-31g

gradient('mp2')
--------------------------------------------------------------------------

    Molecular point group: cs
  Charge       = 0
  Multiplicity = 1
  Basis Set: 6-31G
    Blend: 6-31G
  Basis Set: (6-31G AUX)
    Blend: CC-PVDZ-JKFIT

    Orbital Energies (a.u.)
    -----------------------

    Doubly Occupied:

       1Ap   -20.596337     2Ap    -1.218778     3Ap    -0.566187
       1App   -0.477005     4Ap    -0.457226

  @DF-RHF Final Energy:   -75.81820035371881

   => Energetics <=

    Nuclear Repulsion Energy =              6.5660895814996358
    One-Electron Energy =                -118.1375152423178605
    Two-Electron Energy =                  35.7532253070994130
    Total Energy =                        -75.8182003537188081
  Basis Set: (6-31G AUX)
    Blend: CC-PVDZ-RI
    Molecular point group: cs

    Geometry (in Angstrom), charge = 0, multiplicity = 1:

       Center              X                  Y                   Z               Mass
    ------------   -----------------  -----------------  -----------------  -----------------
           O          0.051439060061     0.040773658628     0.000000000000    15.994914619560
           H          0.051439060061    -1.459226341372     0.000000000000     1.007825032070
           H         -0.867814271639     0.812118790228     0.000000000000     1.007825032070

  Basis Set: 6-31G
    Blend: 6-31G
  Basis Set: (6-31G AUX)
    Blend: CC-PVDZ-JKFIT
  Basis Set: (6-31G AUX)
    Blend: CC-PVDZ-JKFIT
	 Reference Energy          =     -75.8182003537188081 [Eh]
	 Singles Energy            =      -0.0000000000000000 [Eh]
	 Same-Spin Energy          =      -0.0365895335255983 [Eh]
	 Opposite-Spin Energy      =      -0.1265563172938588 [Eh]
	 Correlation Energy        =      -0.1631458508194571 [Eh]
	 Total Energy              =     -75.9813462045382693 [Eh]

	 ================> DF-SCS-MP2 Energies <==================
	-----------------------------------------------------------
	 SCS Same-Spin Scale       =       0.3333333333333333 [-]
	 SCS Opposite-Spin Scale   =       1.2000000000000000 [-]
	 SCS Same-Spin Energy      =      -0.0121965111751994 [Eh]
	 SCS Opposite-Spin Energy  =      -0.1518675807526305 [Eh]
	 SCS Correlation Energy    =      -0.1640640919278299 [Eh]
	 SCS Total Energy          =     -75.9822644456466350 [Eh]
	-----------------------------------------------------------

  -Total Gradient:
     Atom            X                  Y                   Z
    ------   -----------------  -----------------  -----------------
       1        0.022233819910     0.013624378464    -0.000000000000
       2        0.026990453298    -0.098970368113    -0.000000000000
       3       -0.049224273208     0.085345989649     0.000000000000

*** Psi4 exiting successfully. Buy a developer a beer!
