                               Psi4 1.2a1.dev429

  ==> Input File <==

--------------------------------------------------------------------------
# density-fitted hartree fock energies and gradients with 6-31g
molecule h20 {
0 1
O 0.0000000000 0.0000000000 0.0000000000
H 0.0000000000 0.0000000000 0.7000000000
H 0.0000000000 0.6500000000 -1.1258330249
}

set basis 6-31g

gradient('hf')
--------------------------------------------------------------------------

    Molecular point group: cs
  Charge       = 0
  Multiplicity = 1
  Basis Set: 6-31G
    Blend: 6-31G
  Basis Set: (6-31G AUX)
    Blend: CC-PVDZ-JKFIT

    Orbital Energies (a.u.)
    -----------------------

    Doubly Occupied:

       1Ap   -20.508830     2Ap    -1.366604     3Ap    -0.724287
       4Ap    -0.470863     1App   -0.470062

  @DF-RHF Final Energy:   -75.75714829557458

   => Energetics <=

    Nuclear Repulsion Energy =              9.5772561991491827
    One-Electron Energy =                -123.5875173400077358
    Two-Electron Energy =                  38.2531128452839653
    Total Energy =                        -75.7571482955745807
    Molecular point group: cs

    Geometry (in Angstrom), charge = 0, multiplicity = 1:

       Center              X                  Y                   Z               Mass
    ------------   -----------------  -----------------  -----------------  -----------------
           O          0.036372333814    -0.023828524508     0.000000000000    15.994914619560
           H          0.036372333814    -0.723828524508     0.000000000000     1.007825032070
           H         -0.613627666186     1.102004500392     0.000000000000     1.007825032070

  Basis Set: 6-31G
    Blend: 6-31G
  Basis Set: (6-31G AUX)
    Blend: CC-PVDZ-JKFIT

  -Total Gradient:
     Atom            X                  Y                   Z
    ------   -----------------  -----------------  -----------------
       1        0.010107567842    -0.885748417298     0.000000000000
       2        0.048181810004     0.732900150193     0.000000000000
       3       -0.058289377846     0.152848267106     0.000000000000

*** Psi4 exiting successfully. Buy a developer a beer!
