                               Psi4 1.2a1.dev429

  ==> Input File <==

--------------------------------------------------------------------------
# density-fitted hartree fock energies and gradients with 6-31g
molecule h2o {
0 1
O 0.0000000000 0.0000000000 0.0000000000
H 0.0000000000 0.0000000000 1.3000000000
H 0.0000000000 0.7000000000 -1.2124355653
}

set basis 6-31g

gradient('mp2')
--------------------------------------------------------------------------

    Molecular point group: cs
  Charge       = 0
  Multiplicity = 1
  Basis Set: 6-31G
    Blend: 6-31G
  Basis Set: (6-31G AUX)
    Blend: CC-PVDZ-JKFIT

    Orbital Energies (a.u.)
    -----------------------

    Doubly Occupied:

       1Ap   -20.562757     2Ap    -1.186682     3Ap    -0.552481
       1App   -0.451200     4Ap    -0.435411

  @DF-RHF Final Energy:   -75.79175142972775

   => Energetics <=

    Nuclear Repulsion Energy =              6.4832402944760075
    One-Electron Energy =                -118.1729210925147271
    Two-Electron Energy =                  35.8979293683109617
    Total Energy =                        -75.7917514297277535
  Basis Set: (6-31G AUX)
    Blend: CC-PVDZ-RI
    Molecular point group: cs

    Geometry (in Angstrom), charge = 0, multiplicity = 1:

       Center              X                  Y                   Z               Mass
    ------------   -----------------  -----------------  -----------------  -----------------
           O          0.039170205645     0.004899881306     0.000000000000    15.994914619560
           H          0.039170205645    -1.295100118694     0.000000000000     1.007825032070
           H         -0.660829794355     1.217335446606     0.000000000000     1.007825032070

  Basis Set: 6-31G
    Blend: 6-31G
  Basis Set: (6-31G AUX)
    Blend: CC-PVDZ-JKFIT
  Basis Set: (6-31G AUX)
    Blend: CC-PVDZ-JKFIT
	 Reference Energy          =     -75.7917514297277535 [Eh]
	 Singles Energy            =      -0.0000000000000000 [Eh]
	 Same-Spin Energy          =      -0.0361441996949209 [Eh]
	 Opposite-Spin Energy      =      -0.1213805151387712 [Eh]
	 Correlation Energy        =      -0.1575247148336922 [Eh]
	 Total Energy              =     -75.9492761445614519 [Eh]

	 ================> DF-SCS-MP2 Energies <==================
	-----------------------------------------------------------
	 SCS Same-Spin Scale       =       0.3333333333333333 [-]
	 SCS Opposite-Spin Scale   =       1.2000000000000000 [-]
	 SCS Same-Spin Energy      =      -0.0120480665649736 [Eh]
	 SCS Opposite-Spin Energy  =      -0.1456566181665255 [Eh]
	 SCS Correlation Energy    =      -0.1577046847314991 [Eh]
	 SCS Total Energy          =     -75.9494561144592524 [Eh]
	-----------------------------------------------------------

  -Total Gradient:
     Atom            X                  Y                   Z
    ------   -----------------  -----------------  -----------------
       1       -0.024887351582    -0.005209981515     0.000000000000
       2        0.043061963093    -0.106241585365    -0.000000000000
       3       -0.018174611511     0.111451566880    -0.000000000000

*** Psi4 exiting successfully. Buy a developer a beer!
