                               Psi4 1.2a1.dev429

  ==> Input File <==

--------------------------------------------------------------------------
# density-fitted hartree fock energies and gradients with 6-31g
molecule o2 {
0 3
O 0.0000000000 0.0000000000 0.0000000000
O 0.0000000000 0.0000000000 1.0686868687
}

set basis 6-31g
set reference rohf

gradient('scf')
--------------------------------------------------------------------------

    Molecular point group: d2h
  Charge       = 0
  Multiplicity = 3
  Basis Set: 6-31G
    Blend: 6-31G
  Basis Set: (6-31G AUX)
    Blend: CC-PVDZ-JKFIT

    Orbital Energies (a.u.)
    -----------------------

    Doubly Occupied:

       1Ag   -20.723395     1B1u  -20.721739     2Ag    -1.844987
       2B1u   -1.046822     1B3u   -0.782619     1B2u   -0.782619
       3Ag    -0.763383

    Singly Occupied:

       1B2g   -0.163407     1B3g   -0.163407

  @DF-ROHF Final Energy:  -149.49406169006636

   => Energetics <=

    Nuclear Repulsion Energy =             31.6906124157376432
    One-Electron Energy =                -268.0533062169994309
    Two-Electron Energy =                  86.8686321111954243
    Total Energy =                       -149.4940616900663599
    Molecular point group: d2h

    Geometry (in Angstrom), charge = 0, multiplicity = 3:

       Center              X                  Y                   Z               Mass
    ------------   -----------------  -----------------  -----------------  -----------------
           O          0.000000000000     0.000000000000    -0.534343434350    15.994914619560
           O          0.000000000000     0.000000000000     0.534343434350    15.994914619560

  Basis Set: 6-31G
    Blend: 6-31G
  Basis Set: (6-31G AUX)
    Blend: CC-PVDZ-JKFIT

  -Total Gradient:
     Atom            X                  Y                   Z
    ------   -----------------  -----------------  -----------------
       1        0.000000000000     0.000000000000     0.350856506160
       2        0.000000000000    -0.000000000000    -0.350856506160

*** Psi4 exiting successfully. Buy a developer a beer!
