                               Psi4 1.2a1.dev429

  ==> Input File <==

--------------------------------------------------------------------------
# density-fitted hartree fock energies and gradients with 6-31g
molecule o2 {
0 3
O 0.0000000000 0.0000000000 0.0000000000
O 0.0000000000 0.0000000000 1.3428571429
}

set basis 6-31g
set reference rohf

energy('scf')
--------------------------------------------------------------------------

    Molecular point group: d2h

    Geometry (in Angstrom), charge = 0, multiplicity = 3:

       Center              X                  Y                   Z               Mass
    ------------   -----------------  -----------------  -----------------  -----------------
           O          0.000000000000     0.000000000000    -0.671428571450    15.994914619560
           O          0.000000000000     0.000000000000     0.671428571450    15.994914619560

  Charge       = 0
  Multiplicity = 3
  Basis Set: 6-31G
    Blend: 6-31G
  Basis Set: (6-31G AUX)
    Blend: CC-PVDZ-JKFIT

    Orbital Energies (a.u.)
    -----------------------

    Doubly Occupied:

       1Ag   -20.770573     1B1u  -20.770041     2Ag    -1.575795
       2B1u   -1.147697     3Ag    -0.684816     1B2u   -0.667423
       1B3u   -0.667423

    Singly Occupied:

       1B3g   -0.275843     1B2g   -0.275843

  @DF-ROHF Final Energy:  -149.49925928227441

   => Energetics <=

    Nuclear Repulsion Energy =             25.2203605788036036
    One-Electron Energy =                -255.6868353075049072
    Two-Electron Energy =                  80.9672154464268914
    Total Energy =                       -149.4992592822744086
*** Psi4 exiting successfully. Buy a developer a beer!
