                               Psi4 1.2a1.dev429

  ==> Input File <==

--------------------------------------------------------------------------
# density-fitted hartree fock energies and gradients with 6-31g
molecule h20 {
0 1
O 0.0000000000 0.0000000000 0.0000000000
O 0.0000000000 0.0000000000 1.0686868687
}

set basis 6-31g

gradient('hf')
--------------------------------------------------------------------------

    Molecular point group: d2h
  Charge       = 0
  Multiplicity = 1
  Basis Set: 6-31G
    Blend: 6-31G
  Basis Set: (6-31G AUX)
    Blend: CC-PVDZ-JKFIT

    Orbital Energies (a.u.)
    -----------------------

    Doubly Occupied:

       1Ag   -20.733875     1B1u  -20.732205     2Ag    -1.851185
       2B1u   -1.051289     1B2u   -0.843599     3Ag    -0.768170
       1B3u   -0.731622     1B3g   -0.425779

  @DF-RHF Final Energy:  -149.42557631272578

   => Energetics <=

    Nuclear Repulsion Energy =             31.6906124157376432
    One-Electron Energy =                -267.9569279563027635
    Two-Electron Energy =                  86.8407392278393502
    Total Energy =                       -149.4255763127257808
    Molecular point group: d2h

    Geometry (in Angstrom), charge = 0, multiplicity = 1:

       Center              X                  Y                   Z               Mass
    ------------   -----------------  -----------------  -----------------  -----------------
           O          0.000000000000     0.000000000000    -0.534343434350    15.994914619560
           O          0.000000000000     0.000000000000     0.534343434350    15.994914619560

  Basis Set: 6-31G
    Blend: 6-31G
  Basis Set: (6-31G AUX)
    Blend: CC-PVDZ-JKFIT

  -Total Gradient:
     Atom            X                  Y                   Z
    ------   -----------------  -----------------  -----------------
       1        0.000000000000     0.000000000000     0.357415739101
       2        0.000000000000    -0.000000000000    -0.357415739101

*** Psi4 exiting successfully. Buy a developer a beer!
