                               Psi4 1.2a1.dev429

  ==> Input File <==

--------------------------------------------------------------------------
# density-fitted hartree fock energies and gradients with 6-31g
molecule h20 {
0 1
O 0.0000000000 0.0000000000 0.0000000000
H 0.0000000000 0.0000000000 1.1000000000
H 0.0000000000 0.4499513268 -0.5362311102
}

set basis 6-31g

gradient('hf')
--------------------------------------------------------------------------

    Molecular point group: cs
  Charge       = 0
  Multiplicity = 1
  Basis Set: 6-31G
    Blend: 6-31G
  Basis Set: (6-31G AUX)
    Blend: CC-PVDZ-JKFIT

    Orbital Energies (a.u.)
    -----------------------

    Doubly Occupied:

       1Ap   -20.517817     2Ap    -1.395834     3Ap    -0.786802
       4Ap    -0.504454     1App   -0.489621

  @DF-RHF Final Energy:   -75.82445042055522

   => Energetics <=

    Nuclear Repulsion Energy =             10.2081374888986840
    One-Electron Energy =                -124.6761176189578748
    Two-Electron Energy =                  38.6435297095039587
    Total Energy =                        -75.8244504205552232
    Molecular point group: cs

    Geometry (in Angstrom), charge = 0, multiplicity = 1:

       Center              X                  Y                   Z               Mass
    ------------   -----------------  -----------------  -----------------  -----------------
           O          0.025178122859     0.031547061928     0.000000000000    15.994914619560
           H          0.025178122859    -1.068452938072     0.000000000000     1.007825032070
           H         -0.424773203941     0.567778172128     0.000000000000     1.007825032070

  Basis Set: 6-31G
    Blend: 6-31G
  Basis Set: (6-31G AUX)
    Blend: CC-PVDZ-JKFIT

  -Total Gradient:
     Atom            X                  Y                   Z
    ------   -----------------  -----------------  -----------------
       1       -0.521473830979     0.662162801630     0.000000000000
       2        0.024335871648    -0.129190973546     0.000000000000
       3        0.497137959331    -0.532971828084     0.000000000000

*** Psi4 exiting successfully. Buy a developer a beer!
