                               Psi4 1.2.1 release

  ==> Input File <==

--------------------------------------------------------------------------
# density fitted hartree fock
molecule h2o {
0 1
H 0.0000000000 0.0000000000 1.0250000000
H 0.0000000000 1.0162309829 -0.1337893470
O 0.0000000000 0.0000000000 0.0000000000
}

set basis 6-31g
energy('hf')

--------------------------------------------------------------------------

    Molecular point group: c2v

    Geometry (in Angstrom), charge = 0, multiplicity = 1:

       Center              X                  Y                   Z               Mass
    ------------   -----------------  -----------------  -----------------  -----------------
         H            0.000000000000    -0.770635802654     0.600194092059     1.007825032070
         H           -0.000000000000     0.770635802654     0.600194092059     1.007825032070
         O            0.000000000000     0.000000000000    -0.075635368424    15.994914619560

  Charge       = 0
  Multiplicity = 1
  Basis Set: 6-31G
    Blend: 6-31G
  Basis Set: (6-31G AUX)
    Blend: CC-PVDZ-JKFIT

    Orbital Energies [Eh]
    ---------------------

    Doubly Occupied:

       1A1   -20.579267     2A1    -1.330437     1B2    -0.662950
       3A1    -0.563973     1B1    -0.502091

  @DF-RHF Final Energy:   -75.97238959106767

   => Energetics <=

    Nuclear Repulsion Energy =              8.6036652222162804
    One-Electron Energy =                -121.8746669468575448
    Two-Electron Energy =                  37.2986121335735987
    Total Energy =                        -75.9723895910676674

  Dipole Moment: [D]
     X:     0.0000      Y:     0.0000      Z:     2.7627     Total:     2.7627

*** Psi4 exiting successfully. Buy a developer a beer!
