                               Psi4 1.2a1.dev429

  ==> Input File <==

--------------------------------------------------------------------------
# density-fitted hartree fock energies and gradients with 6-31g
molecule h20 {
0 1
O 0.0000000000 0.0000000000 0.0000000000
H 0.0000000000 0.0000000000 1.2000000000
H 0.0000000000 0.6928203230 -0.4000000000
}

set basis 6-31g

gradient('hf')
--------------------------------------------------------------------------

    Molecular point group: cs
  Charge       = 0
  Multiplicity = 1
  Basis Set: 6-31G
    Blend: 6-31G
  Basis Set: (6-31G AUX)
    Blend: CC-PVDZ-JKFIT

    Orbital Energies (a.u.)
    -----------------------

    Doubly Occupied:

       1Ap   -20.550629     2Ap    -1.356933     3Ap    -0.712955
       4Ap    -0.518808     1App   -0.492698

  @DF-RHF Final Energy:   -75.90682570577253

   => Energetics <=

    Nuclear Repulsion Energy =              9.1231240874670227
    One-Electron Energy =                -122.7958522682257154
    Two-Electron Energy =                  37.7659024749861487
    Total Energy =                        -75.9068257057725475
    Molecular point group: cs

    Geometry (in Angstrom), charge = 0, multiplicity = 1:

       Center              X                  Y                   Z               Mass
    ------------   -----------------  -----------------  -----------------  -----------------
           O          0.038768449325     0.044765949309     0.000000000000    15.994914619560
           H          0.038768449325    -1.155234050691     0.000000000000     1.007825032070
           H         -0.654051873675     0.444765949309     0.000000000000     1.007825032070

  Basis Set: 6-31G
    Blend: 6-31G
  Basis Set: (6-31G AUX)
    Blend: CC-PVDZ-JKFIT

  -Total Gradient:
     Atom            X                  Y                   Z
    ------   -----------------  -----------------  -----------------
       1       -0.280806547833     0.264560193867     0.000000000000
       2        0.014379025212    -0.135643396607     0.000000000000
       3        0.266427522621    -0.128916797260     0.000000000000

*** Psi4 exiting successfully. Buy a developer a beer!
