                               Psi4 1.2a1.dev429

  ==> Input File <==

--------------------------------------------------------------------------
# density-fitted hartree fock energies and gradients with 6-31g
molecule h2o {
0 1
O 0.0000000000 0.0000000000 0.0000000000
H 0.0000000000 0.0000000000 0.8000000000
H 0.0000000000 0.7660444431 -0.6427876097
}

set basis 6-31g

gradient('mp2')
--------------------------------------------------------------------------

    Molecular point group: cs
  Charge       = 0
  Multiplicity = 1
  Basis Set: 6-31G
    Blend: 6-31G
  Basis Set: (6-31G AUX)
    Blend: CC-PVDZ-JKFIT

    Orbital Energies (a.u.)
    -----------------------

    Doubly Occupied:

       1Ap   -20.528976     2Ap    -1.371928     3Ap    -0.783269
       4Ap    -0.521699     1App   -0.493878

  @DF-RHF Final Energy:   -75.94222752572502

   => Energetics <=

    Nuclear Repulsion Energy =              9.8491343720566444
    One-Electron Energy =                -124.1832244359617050
    Two-Electron Energy =                  38.3918625381800496
    Total Energy =                        -75.9422275257250163
  Basis Set: (6-31G AUX)
    Blend: CC-PVDZ-RI
    Molecular point group: cs

    Geometry (in Angstrom), charge = 0, multiplicity = 1:

       Center              X                  Y                   Z               Mass
    ------------   -----------------  -----------------  -----------------  -----------------
           O          0.042865883385     0.008797202369     0.000000000000    15.994914619560
           H          0.042865883385    -0.791202797631     0.000000000000     1.007825032070
           H         -0.723178559715     0.651584812069     0.000000000000     1.007825032070

  Basis Set: 6-31G
    Blend: 6-31G
  Basis Set: (6-31G AUX)
    Blend: CC-PVDZ-JKFIT
  Basis Set: (6-31G AUX)
    Blend: CC-PVDZ-JKFIT
	 Reference Energy          =     -75.9422275257250163 [Eh]
	 Singles Energy            =      -0.0000000000000000 [Eh]
	 Same-Spin Energy          =      -0.0292444540288021 [Eh]
	 Opposite-Spin Energy      =      -0.0934490311710638 [Eh]
	 Correlation Energy        =      -0.1226934851998659 [Eh]
	 Total Energy              =     -76.0649210109248770 [Eh]

	 ================> DF-SCS-MP2 Energies <==================
	-----------------------------------------------------------
	 SCS Same-Spin Scale       =       0.3333333333333333 [-]
	 SCS Opposite-Spin Scale   =       1.2000000000000000 [-]
	 SCS Same-Spin Energy      =      -0.0097481513429340 [Eh]
	 SCS Opposite-Spin Energy  =      -0.1121388374052765 [Eh]
	 SCS Correlation Energy    =      -0.1218869887482106 [Eh]
	 SCS Total Energy          =     -76.0641145144732320 [Eh]
	-----------------------------------------------------------

  -Total Gradient:
     Atom            X                  Y                   Z
    ------   -----------------  -----------------  -----------------
       1       -0.005168864332    -0.351393142349    -0.000000000000
       2        0.025657095583     0.307407107235     0.000000000000
       3       -0.020488231251     0.043986035114     0.000000000000

*** Psi4 exiting successfully. Buy a developer a beer!
