                               Psi4 1.2a1.dev429

  ==> Input File <==

--------------------------------------------------------------------------
# density-fitted hartree fock energies and gradients with 6-31g
molecule o2 {
0 3
O 0.0000000000 0.0000000000 0.0000000000
O 0.0000000000 0.0000000000 0.9857142857
}

set basis 6-31g
set reference rohf

energy('scf')
--------------------------------------------------------------------------

    Molecular point group: d2h

    Geometry (in Angstrom), charge = 0, multiplicity = 3:

       Center              X                  Y                   Z               Mass
    ------------   -----------------  -----------------  -----------------  -----------------
           O          0.000000000000     0.000000000000    -0.492857142850    15.994914619560
           O          0.000000000000     0.000000000000     0.492857142850    15.994914619560

  Charge       = 0
  Multiplicity = 3
  Basis Set: 6-31G
    Blend: 6-31G
  Basis Set: (6-31G AUX)
    Blend: CC-PVDZ-JKFIT

    Orbital Energies (a.u.)
    -----------------------

    Doubly Occupied:

       1Ag   -20.711217     1B1u  -20.708368     2Ag    -1.955899
       2B1u   -1.013236     1B3u   -0.835038     1B2u   -0.835038
       3Ag    -0.786667

    Singly Occupied:

       1B2g   -0.113448     1B3g   -0.113448

  @DF-ROHF Final Energy:  -149.40497072440681

   => Energetics <=

    Nuclear Repulsion Energy =             34.3581723843124394
    One-Electron Energy =                -272.9467853284559737
    Two-Electron Energy =                  89.1836422197367540
    Total Energy =                       -149.4049707244067804
*** Psi4 exiting successfully. Buy a developer a beer!
