                               Psi4 1.2a1.dev429

  ==> Input File <==

--------------------------------------------------------------------------
# density-fitted hartree fock energies and gradients with 6-31g
molecule h20 {
0 1
O 0.0000000000 0.0000000000 0.0000000000
O 0.0000000000 0.0000000000 0.8919191919
}

set basis 6-31g

gradient('hf')
--------------------------------------------------------------------------

    Molecular point group: d2h
  Charge       = 0
  Multiplicity = 1
  Basis Set: 6-31G
    Blend: 6-31G
  Basis Set: (6-31G AUX)
    Blend: CC-PVDZ-JKFIT

    Orbital Energies (a.u.)
    -----------------------

    Doubly Occupied:

       1Ag   -20.720192     1B1u  -20.714085     2Ag    -2.103159
       2B1u   -0.981150     1B2u   -0.962387     1B3u   -0.872047
       3Ag    -0.819230     1B3g   -0.308775

  @DF-RHF Final Energy:  -149.11164638351642

   => Energetics <=

    Nuclear Repulsion Energy =             37.9713113669126372
    One-Electron Energy =                -279.2038650437951333
    Two-Electron Energy =                  92.1209072933660877
    Total Energy =                       -149.1116463835164154
    Molecular point group: d2h

    Geometry (in Angstrom), charge = 0, multiplicity = 1:

       Center              X                  Y                   Z               Mass
    ------------   -----------------  -----------------  -----------------  -----------------
           O          0.000000000000     0.000000000000    -0.445959595950    15.994914619560
           O          0.000000000000     0.000000000000     0.445959595950    15.994914619560

  Basis Set: 6-31G
    Blend: 6-31G
  Basis Set: (6-31G AUX)
    Blend: CC-PVDZ-JKFIT

  -Total Gradient:
     Atom            X                  Y                   Z
    ------   -----------------  -----------------  -----------------
       1       -0.000000000000     0.000000000000     1.788747505406
       2        0.000000000000     0.000000000000    -1.788747505406

*** Psi4 exiting successfully. Buy a developer a beer!
