                               Psi4 1.2a1.dev429

  ==> Input File <==

--------------------------------------------------------------------------
# density-fitted hartree fock energies and gradients with 6-31g
molecule o2 {
0 3
O 0.0000000000 0.0000000000 0.0000000000
O 0.0000000000 0.0000000000 0.8919191919
}

set basis 6-31g
set reference rohf

gradient('scf')
--------------------------------------------------------------------------

    Molecular point group: d2h
  Charge       = 0
  Multiplicity = 3
  Basis Set: 6-31G
    Blend: 6-31G
  Basis Set: (6-31G AUX)
    Blend: CC-PVDZ-JKFIT

    Orbital Energies (a.u.)
    -----------------------

    Doubly Occupied:

       1Ag   -20.707462     1B1u  -20.701383     2Ag    -2.094709
       2B1u   -0.975841     1B2u   -0.911218     1B3u   -0.911218
       3Ag    -0.813456

    Singly Occupied:

       1B3g   -0.046130     1B2g   -0.046130

  @DF-ROHF Final Energy:  -149.18124519816780

   => Energetics <=

    Nuclear Repulsion Energy =             37.9713113669126372
    One-Electron Energy =                -279.3216948827690658
    Two-Electron Energy =                  92.1691383176886490
    Total Energy =                       -149.1812451981678009
    Molecular point group: d2h

    Geometry (in Angstrom), charge = 0, multiplicity = 3:

       Center              X                  Y                   Z               Mass
    ------------   -----------------  -----------------  -----------------  -----------------
           O          0.000000000000     0.000000000000    -0.445959595950    15.994914619560
           O          0.000000000000     0.000000000000     0.445959595950    15.994914619560

  Basis Set: 6-31G
    Blend: 6-31G
  Basis Set: (6-31G AUX)
    Blend: CC-PVDZ-JKFIT

  -Total Gradient:
     Atom            X                  Y                   Z
    ------   -----------------  -----------------  -----------------
       1       -0.000000000000     0.000000000000     1.790136557744
       2        0.000000000000     0.000000000000    -1.790136557744

*** Psi4 exiting successfully. Buy a developer a beer!
