                               Psi4 1.2a1.dev429

  ==> Input File <==

--------------------------------------------------------------------------
# density-fitted hartree fock energies and gradients with 6-31g
molecule h2o {
0 1
O 0.0000000000 0.0000000000 0.0000000000
H 0.0000000000 0.0000000000 0.9000000000
H 0.0000000000 0.6500000000 -1.1258330249
}

set basis 6-31g

gradient('mp2')
--------------------------------------------------------------------------

    Molecular point group: cs
  Charge       = 0
  Multiplicity = 1
  Basis Set: 6-31G
    Blend: 6-31G
  Basis Set: (6-31G AUX)
    Blend: CC-PVDZ-JKFIT

    Orbital Energies (a.u.)
    -----------------------

    Doubly Occupied:

       1Ap   -20.525768     2Ap    -1.272632     3Ap    -0.670804
       1App   -0.459168     4Ap    -0.458579

  @DF-RHF Final Energy:   -75.87992485636684

   => Energetics <=

    Nuclear Repulsion Energy =              8.2089978005617574
    One-Electron Energy =                -121.4039445519646421
    Two-Electron Energy =                  37.3150218950360397
    Total Energy =                        -75.8799248563668414
  Basis Set: (6-31G AUX)
    Blend: CC-PVDZ-RI
    Molecular point group: cs

    Geometry (in Angstrom), charge = 0, multiplicity = 1:

       Center              X                  Y                   Z               Mass
    ------------   -----------------  -----------------  -----------------  -----------------
           O          0.036372333814    -0.012637037181     0.000000000000    15.994914619560
           H          0.036372333814    -0.912637037181     0.000000000000     1.007825032070
           H         -0.613627666186     1.113195987719     0.000000000000     1.007825032070

  Basis Set: 6-31G
    Blend: 6-31G
  Basis Set: (6-31G AUX)
    Blend: CC-PVDZ-JKFIT
  Basis Set: (6-31G AUX)
    Blend: CC-PVDZ-JKFIT
	 Reference Energy          =     -75.8799248563668414 [Eh]
	 Singles Energy            =      -0.0000000000000000 [Eh]
	 Same-Spin Energy          =      -0.0324763244299345 [Eh]
	 Opposite-Spin Energy      =      -0.1044531654721660 [Eh]
	 Correlation Energy        =      -0.1369294899021005 [Eh]
	 Total Energy              =     -76.0168543462689428 [Eh]

	 ================> DF-SCS-MP2 Energies <==================
	-----------------------------------------------------------
	 SCS Same-Spin Scale       =       0.3333333333333333 [-]
	 SCS Opposite-Spin Scale   =       1.2000000000000000 [-]
	 SCS Same-Spin Energy      =      -0.0108254414766448 [Eh]
	 SCS Opposite-Spin Energy  =      -0.1253437985665992 [Eh]
	 SCS Correlation Energy    =      -0.1361692400432440 [Eh]
	 SCS Total Energy          =     -76.0160940964100860 [Eh]
	-----------------------------------------------------------

  -Total Gradient:
     Atom            X                  Y                   Z
    ------   -----------------  -----------------  -----------------
       1       -0.007404376544    -0.213623336276    -0.000000000000
       2        0.045901164826     0.083389484654     0.000000000000
       3       -0.038496788282     0.130233851622     0.000000000000

*** Psi4 exiting successfully. Buy a developer a beer!
