                               Psi4 1.2a1.dev429

  ==> Input File <==

--------------------------------------------------------------------------
# density-fitted hartree fock energies and gradients with 6-31g
molecule h2o {
0 1
O 0.0000000000 0.0000000000 0.0000000000
H 0.0000000000 0.0000000000 1.3000000000
H 0.0000000000 0.1562833599 -0.8863269777
}

set basis 6-31g

gradient('mp2')
--------------------------------------------------------------------------

    Molecular point group: cs
  Charge       = 0
  Multiplicity = 1
  Basis Set: 6-31G
    Blend: 6-31G
  Basis Set: (6-31G AUX)
    Blend: CC-PVDZ-JKFIT

    Orbital Energies (a.u.)
    -----------------------

    Doubly Occupied:

       1Ap   -20.499958     2Ap    -1.250871     3Ap    -0.666259
       1App   -0.440979     4Ap    -0.440403

  @DF-RHF Final Energy:   -75.86040722449248

   => Energetics <=

    Nuclear Repulsion Energy =              8.2016958971526694
    One-Electron Energy =                -121.5272670702240987
    Two-Electron Energy =                  37.4651639485789474
    Total Energy =                        -75.8604072244924765
  Basis Set: (6-31G AUX)
    Blend: CC-PVDZ-RI
    Molecular point group: cs

    Geometry (in Angstrom), charge = 0, multiplicity = 1:

       Center              X                  Y                   Z               Mass
    ------------   -----------------  -----------------  -----------------  -----------------
           O          0.008745216209     0.023148081933     0.000000000000    15.994914619560
           H          0.008745216209    -1.276851918067     0.000000000000     1.007825032070
           H         -0.147538143691     0.909475059633     0.000000000000     1.007825032070

  Basis Set: 6-31G
    Blend: 6-31G
  Basis Set: (6-31G AUX)
    Blend: CC-PVDZ-JKFIT
  Basis Set: (6-31G AUX)
    Blend: CC-PVDZ-JKFIT
	 Reference Energy          =     -75.8604072244924765 [Eh]
	 Singles Energy            =      -0.0000000000000000 [Eh]
	 Same-Spin Energy          =      -0.0323294282693531 [Eh]
	 Opposite-Spin Energy      =      -0.1016139078402464 [Eh]
	 Correlation Energy        =      -0.1339433361095995 [Eh]
	 Total Energy              =     -75.9943505606020722 [Eh]

	 ================> DF-SCS-MP2 Energies <==================
	-----------------------------------------------------------
	 SCS Same-Spin Scale       =       0.3333333333333333 [-]
	 SCS Opposite-Spin Scale   =       1.2000000000000000 [-]
	 SCS Same-Spin Energy      =      -0.0107764760897844 [Eh]
	 SCS Opposite-Spin Energy  =      -0.1219366894082957 [Eh]
	 SCS Correlation Energy    =      -0.1327131654980801 [Eh]
	 SCS Total Energy          =     -75.9931203899905512 [Eh]
	-----------------------------------------------------------

  -Total Gradient:
     Atom            X                  Y                   Z
    ------   -----------------  -----------------  -----------------
       1       -0.052194355159     0.215885505936    -0.000000000000
       2        0.016305909420    -0.147988225637    -0.000000000000
       3        0.035888445738    -0.067897280299     0.000000000000

*** Psi4 exiting successfully. Buy a developer a beer!
