                               Psi4 1.2.1 release

  ==> Input File <==

--------------------------------------------------------------------------
# density fitted hartree fock
molecule h2o {
0 1
H 0.0000000000 0.0000000000 0.9375000000
H 0.0000000000 0.8500000000 0.0000000000
O 0.0000000000 0.0000000000 0.0000000000
}

set basis 6-31g
energy('hf')

--------------------------------------------------------------------------

    Molecular point group: cs

    Geometry (in Angstrom), charge = 0, multiplicity = 1:

       Center              X                  Y                   Z               Mass
    ------------   -----------------  -----------------  -----------------  -----------------
         H            0.047563821141    -0.885039903154     0.000000000000     1.007825032070
         H           -0.802436178859     0.052460096846     0.000000000000     1.007825032070
         O            0.047563821141     0.052460096846     0.000000000000    15.994914619560

  Charge       = 0
  Multiplicity = 1
  Basis Set: 6-31G
    Blend: 6-31G
  Basis Set: (6-31G AUX)
    Blend: CC-PVDZ-JKFIT

    Orbital Energies [Eh]
    ---------------------

    Doubly Occupied:

       1Ap   -20.556395     2Ap    -1.415772     3Ap    -0.715029
       4Ap    -0.598411     1App   -0.511485

  @DF-RHF Final Energy:   -75.95423425485878

   => Energetics <=

    Nuclear Repulsion Energy =              9.9143044798200926
    One-Electron Energy =                -124.1428969830619451
    Two-Electron Energy =                  38.2743582483830806
    Total Energy =                        -75.9542342548587754

  Dipole Moment: [D]
     X:    -1.9888      Y:    -2.0005      Z:     0.0000     Total:     2.8209

*** Psi4 exiting successfully. Buy a developer a beer!
