                               Psi4 1.2a1.dev429

  ==> Input File <==

--------------------------------------------------------------------------
# density-fitted hartree fock energies and gradients with 6-31g
molecule h20 {
0 1
O 0.0000000000 0.0000000000 0.0000000000
H 0.0000000000 0.0000000000 0.9000000000
H 0.0000000000 0.0000000000 -1.0000000000
}

set basis 6-31g

gradient('hf')
--------------------------------------------------------------------------

    Molecular point group: c2v
  Charge       = 0
  Multiplicity = 1
  Basis Set: 6-31G
    Blend: 6-31G
  Basis Set: (6-31G AUX)
    Blend: CC-PVDZ-JKFIT

    Orbital Energies (a.u.)
    -----------------------

    Doubly Occupied:

       1A1   -20.503634     2A1    -1.298503     3A1    -0.771491
       1B1    -0.466859     1B2    -0.466859

  @DF-RHF Final Energy:   -75.93753771674869

   => Energetics <=

    Nuclear Repulsion Energy =              9.2157293987194144
    One-Electron Energy =                -123.2918407735819812
    Two-Electron Energy =                  38.1385736581138772
    Total Energy =                        -75.9375377167486931
    Molecular point group: c2v

    Geometry (in Angstrom), charge = 0, multiplicity = 1:

       Center              X                  Y                   Z               Mass
    ------------   -----------------  -----------------  -----------------  -----------------
           O          0.000000000000     0.000000000000     0.005595743664    15.994914619560
           H          0.000000000000     0.000000000000     0.905595743664     1.007825032070
           H          0.000000000000     0.000000000000    -0.994404256336     1.007825032070

  Basis Set: 6-31G
    Blend: 6-31G
  Basis Set: (6-31G AUX)
    Blend: CC-PVDZ-JKFIT

  -Total Gradient:
     Atom            X                  Y                   Z
    ------   -----------------  -----------------  -----------------
       1       -0.000000000000    -0.000000000000     0.120370158568
       2        0.000000000000     0.000000000000    -0.040525175806
       3        0.000000000000     0.000000000000    -0.079844982761

*** Psi4 exiting successfully. Buy a developer a beer!
