                               Psi4 1.2a1.dev429

  ==> Input File <==

--------------------------------------------------------------------------
# density-fitted hartree fock energies and gradients with 6-31g
molecule h2o {
0 1
O 0.0000000000 0.0000000000 0.0000000000
H 0.0000000000 0.0000000000 1.1000000000
H 0.0000000000 0.7070663707 -0.8426488874
}

set basis 6-31g

gradient('mp2')
--------------------------------------------------------------------------

    Molecular point group: c2v
  Charge       = 0
  Multiplicity = 1
  Basis Set: 6-31G
    Blend: 6-31G
  Basis Set: (6-31G AUX)
    Blend: CC-PVDZ-JKFIT

    Orbital Energies (a.u.)
    -----------------------

    Doubly Occupied:

       1A1   -20.547422     2A1    -1.256866     1B2    -0.665594
       3A1    -0.477044     1B1    -0.468575

  @DF-RHF Final Energy:   -75.92737140582217

   => Energetics <=

    Nuclear Repulsion Energy =              7.9530951354211012
    One-Electron Energy =                -120.9299325484084022
    Two-Electron Energy =                  37.0494660071651296
    Total Energy =                        -75.9273714058221572
  Basis Set: (6-31G AUX)
    Blend: CC-PVDZ-RI
    Molecular point group: c2v

    Geometry (in Angstrom), charge = 0, multiplicity = 1:

       Center              X                  Y                   Z               Mass
    ------------   -----------------  -----------------  -----------------  -----------------
           O          0.000000000000     0.000000000000    -0.042104855100    15.994914619560
           H          0.000000000000    -1.033661882858     0.334117302585     1.007825032070
           H         -0.000000000000     1.033661882858     0.334117302585     1.007825032070

  Basis Set: 6-31G
    Blend: 6-31G
  Basis Set: (6-31G AUX)
    Blend: CC-PVDZ-JKFIT
  Basis Set: (6-31G AUX)
    Blend: CC-PVDZ-JKFIT
	 Reference Energy          =     -75.9273714058221714 [Eh]
	 Singles Energy            =      -0.0000000000000000 [Eh]
	 Same-Spin Energy          =      -0.0328238549943409 [Eh]
	 Opposite-Spin Energy      =      -0.1054725517704660 [Eh]
	 Correlation Energy        =      -0.1382964067648069 [Eh]
	 Total Energy              =     -76.0656678125869803 [Eh]

	 ================> DF-SCS-MP2 Energies <==================
	-----------------------------------------------------------
	 SCS Same-Spin Scale       =       0.3333333333333333 [-]
	 SCS Opposite-Spin Scale   =       1.2000000000000000 [-]
	 SCS Same-Spin Energy      =      -0.0109412849981136 [Eh]
	 SCS Opposite-Spin Energy  =      -0.1265670621245592 [Eh]
	 SCS Correlation Energy    =      -0.1375083471226728 [Eh]
	 SCS Total Energy          =     -76.0648797529448473 [Eh]
	-----------------------------------------------------------

  -Total Gradient:
     Atom            X                  Y                   Z
    ------   -----------------  -----------------  -----------------
       1        0.000000000000     0.000000000007     0.006325038539
       2       -0.000000000000    -0.097077953645    -0.003162519269
       3       -0.000000000000     0.097077953638    -0.003162519270

*** Psi4 exiting successfully. Buy a developer a beer!
