                               Psi4 1.2a1.dev429

  ==> Input File <==

--------------------------------------------------------------------------
# density-fitted hartree fock energies and gradients with 6-31g
molecule h2o {
0 1
O 0.0000000000 0.0000000000 0.0000000000
H 0.0000000000 0.0000000000 1.4000000000
H 0.0000000000 0.7500000000 -1.2990381057
}

set basis 6-31g

gradient('mp2')
--------------------------------------------------------------------------

    Molecular point group: cs
  Charge       = 0
  Multiplicity = 1
  Basis Set: 6-31G
    Blend: 6-31G
  Basis Set: (6-31G AUX)
    Blend: CC-PVDZ-JKFIT

    Orbital Energies (a.u.)
    -----------------------

    Doubly Occupied:

       1Ap   -20.577010     2Ap    -1.176756     3Ap    -0.519294
       1App   -0.454646     4Ap    -0.428409

  @DF-RHF Final Energy:   -75.74334909316107

   => Energetics <=

    Nuclear Repulsion Energy =              6.0350520628783002
    One-Electron Energy =                -117.2445729033089350
    Two-Electron Energy =                  35.4661717472695557
    Total Energy =                        -75.7433490931610720
  Basis Set: (6-31G AUX)
    Blend: CC-PVDZ-RI
    Molecular point group: cs

    Geometry (in Angstrom), charge = 0, multiplicity = 1:

       Center              X                  Y                   Z               Mass
    ------------   -----------------  -----------------  -----------------  -----------------
           O          0.041968077477     0.005649568803     0.000000000000    15.994914619560
           H          0.041968077477    -1.394350431197     0.000000000000     1.007825032070
           H         -0.708031922523     1.304687674503     0.000000000000     1.007825032070

  Basis Set: 6-31G
    Blend: 6-31G
  Basis Set: (6-31G AUX)
    Blend: CC-PVDZ-JKFIT
  Basis Set: (6-31G AUX)
    Blend: CC-PVDZ-JKFIT
	 Reference Energy          =     -75.7433490931610720 [Eh]
	 Singles Energy            =      -0.0000000000000000 [Eh]
	 Same-Spin Energy          =      -0.0375244162401062 [Eh]
	 Opposite-Spin Energy      =      -0.1301792514296048 [Eh]
	 Correlation Energy        =      -0.1677036676697110 [Eh]
	 Total Energy              =     -75.9110527608307848 [Eh]

	 ================> DF-SCS-MP2 Energies <==================
	-----------------------------------------------------------
	 SCS Same-Spin Scale       =       0.3333333333333333 [-]
	 SCS Opposite-Spin Scale   =       1.2000000000000000 [-]
	 SCS Same-Spin Energy      =      -0.0125081387467021 [Eh]
	 SCS Opposite-Spin Energy  =      -0.1562151017155257 [Eh]
	 SCS Correlation Energy    =      -0.1687232404622278 [Eh]
	 SCS Total Energy          =     -75.9120723336232999 [Eh]
	-----------------------------------------------------------

  -Total Gradient:
     Atom            X                  Y                   Z
    ------   -----------------  -----------------  -----------------
       1       -0.029659805480    -0.000937427025     0.000000000000
       2        0.042088324897    -0.099154272611    -0.000000000000
       3       -0.012428519417     0.100091699637    -0.000000000000

*** Psi4 exiting successfully. Buy a developer a beer!
