                               Psi4 1.2a1.dev429

  ==> Input File <==

--------------------------------------------------------------------------
# density-fitted hartree fock energies and gradients with 6-31g
molecule h2o {
0 1
O 0.0000000000 0.0000000000 0.0000000000
H 0.0000000000 0.0000000000 0.9000000000
H 0.0000000000 1.1000000000 0.0000000000
}

set basis 6-31g

gradient('mp2')
--------------------------------------------------------------------------

    Molecular point group: cs
  Charge       = 0
  Multiplicity = 1
  Basis Set: 6-31G
    Blend: 6-31G
  Basis Set: (6-31G AUX)
    Blend: CC-PVDZ-JKFIT

    Orbital Energies (a.u.)
    -----------------------

    Doubly Occupied:

       1Ap   -20.578384     2Ap    -1.360368     3Ap    -0.667451
       4Ap    -0.576902     1App   -0.507498

  @DF-RHF Final Energy:   -75.95449784543409

   => Energetics <=

    Nuclear Repulsion Energy =              8.9246867113982233
    One-Electron Energy =                -122.3771625245301493
    Two-Electron Energy =                  37.4979779676978353
    Total Energy =                        -75.9544978454340907
  Basis Set: (6-31G AUX)
    Blend: CC-PVDZ-RI
    Molecular point group: cs

    Geometry (in Angstrom), charge = 0, multiplicity = 1:

       Center              X                  Y                   Z               Mass
    ------------   -----------------  -----------------  -----------------  -----------------
           O          0.061553180300     0.050361692973     0.000000000000    15.994914619560
           H          0.061553180300    -0.849638307027     0.000000000000     1.007825032070
           H         -1.038446819700     0.050361692973     0.000000000000     1.007825032070

  Basis Set: 6-31G
    Blend: 6-31G
  Basis Set: (6-31G AUX)
    Blend: CC-PVDZ-JKFIT
  Basis Set: (6-31G AUX)
    Blend: CC-PVDZ-JKFIT
	 Reference Energy          =     -75.9544978454340907 [Eh]
	 Singles Energy            =      -0.0000000000000000 [Eh]
	 Same-Spin Energy          =      -0.0309813018680733 [Eh]
	 Opposite-Spin Energy      =      -0.1028913961997459 [Eh]
	 Correlation Energy        =      -0.1338726980678192 [Eh]
	 Total Energy              =     -76.0883705435019095 [Eh]

	 ================> DF-SCS-MP2 Energies <==================
	-----------------------------------------------------------
	 SCS Same-Spin Scale       =       0.3333333333333333 [-]
	 SCS Opposite-Spin Scale   =       1.2000000000000000 [-]
	 SCS Same-Spin Energy      =      -0.0103271006226911 [Eh]
	 SCS Opposite-Spin Energy  =      -0.1234696754396950 [Eh]
	 SCS Correlation Energy    =      -0.1337967760623861 [Eh]
	 SCS Total Energy          =     -76.0882946214964733 [Eh]
	-----------------------------------------------------------

  -Total Gradient:
     Atom            X                  Y                   Z
    ------   -----------------  -----------------  -----------------
       1        0.096607994621    -0.081489878515     0.000000000000
       2       -0.034406310017     0.109640496490    -0.000000000000
       3       -0.062201684603    -0.028150617975    -0.000000000000

*** Psi4 exiting successfully. Buy a developer a beer!
