                               Psi4 1.2a1.dev429

  ==> Input File <==

--------------------------------------------------------------------------
# density-fitted hartree fock energies and gradients with 6-31g
molecule h2o {
0 1
O 0.0000000000 0.0000000000 0.0000000000
H 0.0000000000 0.0000000000 1.2000000000
H 0.0000000000 0.0000000000 -1.1000000000
}

set basis 6-31g

gradient('mp2')
--------------------------------------------------------------------------

    Molecular point group: c2v
  Charge       = 0
  Multiplicity = 1
  Basis Set: 6-31G
    Blend: 6-31G
  Basis Set: (6-31G AUX)
    Blend: CC-PVDZ-JKFIT

    Orbital Energies (a.u.)
    -----------------------

    Doubly Occupied:

       1A1   -20.506142     2A1    -1.205103     3A1    -0.636201
       1B2    -0.432821     1B1    -0.432821

  @DF-RHF Final Energy:   -75.86815599869483

   => Energetics <=

    Nuclear Repulsion Energy =              7.6064866214978917
    One-Electron Energy =                -120.5231121492192727
    Two-Electron Energy =                  37.0484695290265478
    Total Energy =                        -75.8681559986948315
  Basis Set: (6-31G AUX)
    Blend: CC-PVDZ-RI
    Molecular point group: c2v

    Geometry (in Angstrom), charge = 0, multiplicity = 1:

       Center              X                  Y                   Z               Mass
    ------------   -----------------  -----------------  -----------------  -----------------
           O          0.000000000000     0.000000000000    -0.005595743664    15.994914619560
           H          0.000000000000     0.000000000000     1.194404256336     1.007825032070
           H          0.000000000000     0.000000000000    -1.105595743664     1.007825032070

  Basis Set: 6-31G
    Blend: 6-31G
  Basis Set: (6-31G AUX)
    Blend: CC-PVDZ-JKFIT
  Basis Set: (6-31G AUX)
    Blend: CC-PVDZ-JKFIT
	 Reference Energy          =     -75.8681559986948315 [Eh]
	 Singles Energy            =      -0.0000000000000000 [Eh]
	 Same-Spin Energy          =      -0.0329660888940722 [Eh]
	 Opposite-Spin Energy      =      -0.1028214527830361 [Eh]
	 Correlation Energy        =      -0.1357875416771082 [Eh]
	 Total Energy              =     -76.0039435403719352 [Eh]

	 ================> DF-SCS-MP2 Energies <==================
	-----------------------------------------------------------
	 SCS Same-Spin Scale       =       0.3333333333333333 [-]
	 SCS Opposite-Spin Scale   =       1.2000000000000000 [-]
	 SCS Same-Spin Energy      =      -0.0109886962980241 [Eh]
	 SCS Opposite-Spin Energy  =      -0.1233857433396433 [Eh]
	 SCS Correlation Energy    =      -0.1343744396376673 [Eh]
	 SCS Total Energy          =     -76.0025304383324993 [Eh]
	-----------------------------------------------------------

  -Total Gradient:
     Atom            X                  Y                   Z
    ------   -----------------  -----------------  -----------------
       1        0.000000000000     0.000000000000    -0.029343845579
       2        0.000000000000    -0.000000000000     0.135225527938
       3       -0.000000000000    -0.000000000000    -0.105881682359

*** Psi4 exiting successfully. Buy a developer a beer!
