                               Psi4 1.3.1 release

  ==> Input File <==

--------------------------------------------------------------------------
# density fitted MP2
molecule h2o {
0 1
H 0.0000000000 0.0000000000 1.1125000000
H 0.0000000000 0.8118988160 -0.4687500000
O 0.0000000000 0.0000000000 0.0000000000
}

set basis 6-31g
energy('mp2')

--------------------------------------------------------------------------

    Molecular point group: cs

    Geometry (in Angstrom), charge = 0, multiplicity = 1:

       Center              X                  Y                   Z               Mass
    ------------   -----------------  -----------------  -----------------  -----------------
         H            0.045431776558    -1.076477400160     0.000000000000     1.007825032230
         H           -0.766467039442     0.504772599840     0.000000000000     1.007825032230
         O            0.045431776558     0.036022599840     0.000000000000    15.994914619570

  Charge       = 0
  Multiplicity = 1
  Basis Set: 6-31G
    Blend: 6-31G
  Basis Set: (6-31G AUX)
    Blend: CC-PVDZ-JKFIT

    Orbital Energies [Eh]
    ---------------------

    Doubly Occupied:

       1Ap   -20.558585     2Ap    -1.314218     3Ap    -0.695141
       4Ap    -0.520192     1App   -0.489260

  @DF-RHF Final Energy:   -75.96204801697353

   => Energetics <=

    Nuclear Repulsion Energy =              8.6186723191572376
    One-Electron Energy =                -122.0066474478981178
    Two-Electron Energy =                  37.4259271117673578
    Total Energy =                        -75.9620480169735117

  Dipole Moment: [D]
     X:    -1.9655      Y:    -1.3053      Z:     0.0000     Total:     2.3594

  Basis Set: (6-31G AUX)
    Blend: CC-PVDZ-RI
	 Reference Energy          =     -75.9620480169735259 [Eh]
	 Singles Energy            =      -0.0000000000000000 [Eh]
	 Same-Spin Energy          =      -0.0314320396809452 [Eh]
	 Opposite-Spin Energy      =      -0.1021936655515008 [Eh]
	 Correlation Energy        =      -0.1336257052324460 [Eh]
	 Total Energy              =     -76.0956737222059729 [Eh]

	 ================> DF-SCS-MP2 Energies <==================
	-----------------------------------------------------------
	 SCS Same-Spin Scale       =       0.3333333333333333 [-]
	 SCS Opposite-Spin Scale   =       1.2000000000000000 [-]
	 SCS Same-Spin Energy      =      -0.0104773465603151 [Eh]
	 SCS Opposite-Spin Energy  =      -0.1226323986618010 [Eh]
	 SCS Correlation Energy    =      -0.1331097452221160 [Eh]
	 SCS Total Energy          =     -76.0951577621956403 [Eh]
	-----------------------------------------------------------

*** Psi4 exiting successfully. Buy a developer a beer!
