                               Psi4 1.2a1.dev429

  ==> Input File <==

--------------------------------------------------------------------------
# density-fitted hartree fock energies and gradients with 6-31g
molecule h20 {
0 1
O 0.0000000000 0.0000000000 0.0000000000
H 0.0000000000 0.0000000000 1.0000000000
H 0.0000000000 0.7878462024 -0.1389185421
}

set basis 6-31g

gradient('hf')
--------------------------------------------------------------------------

    Molecular point group: cs
  Charge       = 0
  Multiplicity = 1
  Basis Set: 6-31G
    Blend: 6-31G
  Basis Set: (6-31G AUX)
    Blend: CC-PVDZ-JKFIT

    Orbital Energies (a.u.)
    -----------------------

    Doubly Occupied:

       1Ap   -20.551645     2Ap    -1.407738     3Ap    -0.735452
       4Ap    -0.575654     1App   -0.507989

  @DF-RHF Final Energy:   -75.94306280499217

   => Energetics <=

    Nuclear Repulsion Energy =              9.9073058005848793
    One-Electron Energy =                -124.1437821664411558
    Two-Electron Energy =                  38.2934135608641029
    Total Energy =                        -75.9430628049921665
    Molecular point group: cs

    Geometry (in Angstrom), charge = 0, multiplicity = 1:

       Center              X                  Y                   Z               Mass
    ------------   -----------------  -----------------  -----------------  -----------------
           O          0.044085853950     0.048183911119     0.000000000000    15.994914619560
           H          0.044085853950    -0.951816088881     0.000000000000     1.007825032070
           H         -0.743760348450     0.187102453219     0.000000000000     1.007825032070

  Basis Set: 6-31G
    Blend: 6-31G
  Basis Set: (6-31G AUX)
    Blend: CC-PVDZ-JKFIT

  -Total Gradient:
     Atom            X                  Y                   Z
    ------   -----------------  -----------------  -----------------
       1       -0.266584394229     0.121917810169     0.000000000000
       2       -0.024264661684    -0.039834545972     0.000000000000
       3        0.290849055913    -0.082083264197     0.000000000000

*** Psi4 exiting successfully. Buy a developer a beer!
