                               Psi4 1.2a1.dev429

  ==> Input File <==

--------------------------------------------------------------------------
# density-fitted MP2 energies and gradients with 6-31g

molecule h20 {
-1 1
C 0.0000000000 0.0000000000 0.0000000000
X 0.0000000000 0.0000000000 1.0000000000
H 0.0000000000 1.0905302579 0.2922067019
H 0.9444269069 -0.5452651289 0.2922067019
H -0.9444269069 -0.5452651289 0.2922067019
}

set reference rhf
set basis 6-31g

gradient('mp2')
--------------------------------------------------------------------------

    Molecular point group: cs
  Charge       = -1
  Multiplicity = 1
  Basis Set: 6-31G
    Blend: 6-31G
  Basis Set: (6-31G AUX)
    Blend: CC-PVDZ-JKFIT

    Orbital Energies (a.u.)
    -----------------------

    Doubly Occupied:

       1Ap   -10.867432     2Ap    -0.552981     3Ap    -0.210233
       1App   -0.210233     4Ap     0.035988

  @DF-RHF Final Energy:   -39.44317206900229

   => Energetics <=

    Nuclear Repulsion Energy =              9.2773112188976263
    One-Electron Energy =                 -73.8311829849573371
    Two-Electron Energy =                  25.1106996970574201
    Total Energy =                        -39.4431720690022942
  Basis Set: (6-31G AUX)
    Blend: CC-PVDZ-RI
    Molecular point group: cs

    Geometry (in Angstrom), charge = -1, multiplicity = 1:

       Center              X                  Y                   Z               Mass
    ------------   -----------------  -----------------  -----------------  -----------------
           C          0.000000000003    -0.058806613016     0.000000000000    12.000000000000
           H         -0.545265128943     0.233400088884     0.944426906906     1.007825032070
           H         -0.545265128943     0.233400088884    -0.944426906906     1.007825032070
           H          1.090530257846     0.233400088884     0.000000000000     1.007825032070

  Basis Set: 6-31G
    Blend: 6-31G
  Basis Set: (6-31G AUX)
    Blend: CC-PVDZ-JKFIT
  Basis Set: (6-31G AUX)
    Blend: CC-PVDZ-JKFIT
	 Reference Energy          =     -39.4431720690022942 [Eh]
	 Singles Energy            =      -0.0000000000000000 [Eh]
	 Same-Spin Energy          =      -0.0176814165504548 [Eh]
	 Opposite-Spin Energy      =      -0.0798977064537350 [Eh]
	 Correlation Energy        =      -0.0975791230041898 [Eh]
	 Total Energy              =     -39.5407511920064820 [Eh]

	 ================> DF-SCS-MP2 Energies <==================
	-----------------------------------------------------------
	 SCS Same-Spin Scale       =       0.3333333333333333 [-]
	 SCS Opposite-Spin Scale   =       1.2000000000000000 [-]
	 SCS Same-Spin Energy      =      -0.0058938055168183 [Eh]
	 SCS Opposite-Spin Energy  =      -0.0958772477444820 [Eh]
	 SCS Correlation Energy    =      -0.1017710532613003 [Eh]
	 SCS Total Energy          =     -39.5449431222635965 [Eh]
	-----------------------------------------------------------

  -Total Gradient:
     Atom            X                  Y                   Z
    ------   -----------------  -----------------  -----------------
       1        0.000000000093     0.013322219806    -0.000000000002
       2       -0.007421614907    -0.004440739929     0.012854613991
       3       -0.007421614907    -0.004440739929    -0.012854613990
       4        0.014843229720    -0.004440739948     0.000000000001

*** Psi4 exiting successfully. Buy a developer a beer!
