                               Psi4 1.3.1 release

  ==> Input File <==

--------------------------------------------------------------------------
# density fitted MP2
molecule h2o {
0 1
H 0.0000000000 0.0000000000 1.2000000000
H 0.0000000000 1.1591109915 -0.3105828541
O 0.0000000000 0.0000000000 0.0000000000
}

set basis 6-31g
energy('mp2')

--------------------------------------------------------------------------

    Molecular point group: c2v

    Geometry (in Angstrom), charge = 0, multiplicity = 1:

       Center              X                  Y                   Z               Mass
    ------------   -----------------  -----------------  -----------------  -----------------
         H            0.000000000000    -0.952024008326     0.648758364972     1.007825032230
         H           -0.000000000000     0.952024008326     0.648758364972     1.007825032230
         O            0.000000000000     0.000000000000    -0.081755349827    15.994914619570

  Charge       = 0
  Multiplicity = 1
  Basis Set: 6-31G
    Blend: 6-31G
  Basis Set: (6-31G AUX)
    Blend: CC-PVDZ-JKFIT

    Orbital Energies [Eh]
    ---------------------

    Doubly Occupied:

       1A1   -20.605345     2A1    -1.262763     1B2    -0.597195
       3A1    -0.523270     1B1    -0.495311

  @DF-RHF Final Energy:   -75.91057644906824

   => Energetics <=

    Nuclear Repulsion Energy =              7.3336183408293305
    One-Electron Energy =                -119.5206216279436404
    Two-Electron Energy =                  36.2764268380460635
    Total Energy =                        -75.9105764490682446

  Dipole Moment: [D]
     X:     0.0000      Y:     0.0000      Z:     2.6253     Total:     2.6253

  Basis Set: (6-31G AUX)
    Blend: CC-PVDZ-RI
	 Reference Energy          =     -75.9105764490682446 [Eh]
	 Singles Energy            =      -0.0000000000000000 [Eh]
	 Same-Spin Energy          =      -0.0348701244751314 [Eh]
	 Opposite-Spin Energy      =      -0.1168185044669379 [Eh]
	 Correlation Energy        =      -0.1516886289420692 [Eh]
	 Total Energy              =     -76.0622650780103129 [Eh]

	 ================> DF-SCS-MP2 Energies <==================
	-----------------------------------------------------------
	 SCS Same-Spin Scale       =       0.3333333333333333 [-]
	 SCS Opposite-Spin Scale   =       1.2000000000000000 [-]
	 SCS Same-Spin Energy      =      -0.0116233748250438 [Eh]
	 SCS Opposite-Spin Energy  =      -0.1401822053603254 [Eh]
	 SCS Correlation Energy    =      -0.1518055801853692 [Eh]
	 SCS Total Energy          =     -76.0623820292536124 [Eh]
	-----------------------------------------------------------

*** Psi4 exiting successfully. Buy a developer a beer!
