                               Psi4 1.2a1.dev429

  ==> Input File <==

--------------------------------------------------------------------------
# density-fitted hartree fock energies and gradients with 6-31g
molecule h2o {
0 1
O 0.0000000000 0.0000000000 0.0000000000
H 0.0000000000 0.0000000000 1.0000000000
H 0.0000000000 0.2604722665 -1.4772116295
}

set basis 6-31g

gradient('mp2')
--------------------------------------------------------------------------

    Molecular point group: cs
  Charge       = 0
  Multiplicity = 1
  Basis Set: 6-31G
    Blend: 6-31G
  Basis Set: (6-31G AUX)
    Blend: CC-PVDZ-JKFIT

    Orbital Energies (a.u.)
    -----------------------

    Doubly Occupied:

       1Ap   -20.500274     2Ap    -1.199787     3Ap    -0.588927
       1App   -0.422509     4Ap    -0.418106

  @DF-RHF Final Energy:   -75.80069794787505

   => Energetics <=

    Nuclear Repulsion Energy =              7.2681430263767899
    One-Electron Energy =                -119.8784752237249620
    Two-Electron Energy =                  36.8096342494731203
    Total Energy =                        -75.8006979478750509
  Basis Set: (6-31G AUX)
    Blend: CC-PVDZ-RI
    Molecular point group: cs

    Geometry (in Angstrom), charge = 0, multiplicity = 1:

       Center              X                  Y                   Z               Mass
    ------------   -----------------  -----------------  -----------------  -----------------
           O          0.014575360348    -0.026703539520     0.000000000000    15.994914619560
           H          0.014575360348    -1.026703539520     0.000000000000     1.007825032070
           H         -0.245896906152     1.450508089980     0.000000000000     1.007825032070

  Basis Set: 6-31G
    Blend: 6-31G
  Basis Set: (6-31G AUX)
    Blend: CC-PVDZ-JKFIT
  Basis Set: (6-31G AUX)
    Blend: CC-PVDZ-JKFIT
	 Reference Energy          =     -75.8006979478750509 [Eh]
	 Singles Energy            =      -0.0000000000000000 [Eh]
	 Same-Spin Energy          =      -0.0341085735147428 [Eh]
	 Opposite-Spin Energy      =      -0.1090336346183169 [Eh]
	 Correlation Energy        =      -0.1431422081330597 [Eh]
	 Total Energy              =     -75.9438401560081076 [Eh]

	 ================> DF-SCS-MP2 Energies <==================
	-----------------------------------------------------------
	 SCS Same-Spin Scale       =       0.3333333333333333 [-]
	 SCS Opposite-Spin Scale   =       1.2000000000000000 [-]
	 SCS Same-Spin Energy      =      -0.0113695245049143 [Eh]
	 SCS Opposite-Spin Energy  =      -0.1308403615419803 [Eh]
	 SCS Correlation Energy    =      -0.1422098860468945 [Eh]
	 SCS Total Energy          =     -75.9429078339219501 [Eh]
	-----------------------------------------------------------

  -Total Gradient:
     Atom            X                  Y                   Z
    ------   -----------------  -----------------  -----------------
       1       -0.037545736358    -0.098605359428     0.000000000000
       2        0.036125273364    -0.032030228849     0.000000000000
       3        0.001420462995     0.130635588277    -0.000000000000

*** Psi4 exiting successfully. Buy a developer a beer!
