                               Psi4 1.3.1 release

  ==> Input File <==

--------------------------------------------------------------------------
# density fitted hartree fock
molecule h2o {
0 1
H 0.0000000000 0.0000000000 1.1000000000
H 0.0000000000 0.8377863738 -0.3288069219
O 0.0000000000 0.0000000000 0.0000000000
}

set basis 6-31g
energy('hf')

--------------------------------------------------------------------------

    Molecular point group: cs

    Geometry (in Angstrom), charge = 0, multiplicity = 1:

       Center              X                  Y                   Z               Mass
    ------------   -----------------  -----------------  -----------------  -----------------
         H            0.046880377933    -1.056846012192     0.000000000000     1.007825032230
         H           -0.790905995867     0.371960909708     0.000000000000     1.007825032230
         O            0.046880377933     0.043153987808     0.000000000000    15.994914619570

  Charge       = 0
  Multiplicity = 1
  Basis Set: 6-31G
    Blend: 6-31G
  Basis Set: (6-31G AUX)
    Blend: CC-PVDZ-JKFIT

    Orbital Energies [Eh]
    ---------------------

    Doubly Occupied:

       1Ap   -20.561977     2Ap    -1.337137     3Ap    -0.699380
       4Ap    -0.538847     1App   -0.496143

  @DF-RHF Final Energy:   -75.96488951853357

   => Energetics <=

    Nuclear Repulsion Energy =              8.8718498850283325
    One-Electron Energy =                -122.4065006038991328
    Two-Electron Energy =                  37.5697612003372399
    Total Energy =                        -75.9648895185335675

  Dipole Moment: [D]
     X:    -2.0124      Y:    -1.5168      Z:     0.0000     Total:     2.5200

*** Psi4 exiting successfully. Buy a developer a beer!
