                               Psi4 1.2a1.dev429

  ==> Input File <==

--------------------------------------------------------------------------
# density-fitted hartree fock energies and gradients with 6-31g
molecule h2o {
0 1
O 0.0000000000 0.0000000000 0.0000000000
H 0.0000000000 0.0000000000 0.8000000000
H 0.0000000000 0.9526279442 -0.5500000000
}

set basis 6-31g

gradient('mp2')
--------------------------------------------------------------------------

    Molecular point group: cs
  Charge       = 0
  Multiplicity = 1
  Basis Set: 6-31G
    Blend: 6-31G
  Basis Set: (6-31G AUX)
    Blend: CC-PVDZ-JKFIT

    Orbital Energies (a.u.)
    -----------------------

    Doubly Occupied:

       1Ap   -20.544320     2Ap    -1.367601     3Ap    -0.739044
       4Ap    -0.529368     1App   -0.495266

  @DF-RHF Final Energy:   -75.93057753905654

   => Energetics <=

    Nuclear Repulsion Energy =              9.4606062191010594
    One-Electron Energy =                -123.4311718169890497
    Two-Electron Energy =                  38.0399880588314616
    Total Energy =                        -75.9305775390565429
  Basis Set: (6-31G AUX)
    Blend: CC-PVDZ-RI
    Molecular point group: cs

    Geometry (in Angstrom), charge = 0, multiplicity = 1:

       Center              X                  Y                   Z               Mass
    ------------   -----------------  -----------------  -----------------  -----------------
           O          0.053306617825     0.013989359159     0.000000000000    15.994914619560
           H          0.053306617825    -0.786010640841     0.000000000000     1.007825032070
           H         -0.899321326375     0.563989359159     0.000000000000     1.007825032070

  Basis Set: 6-31G
    Blend: 6-31G
  Basis Set: (6-31G AUX)
    Blend: CC-PVDZ-JKFIT
  Basis Set: (6-31G AUX)
    Blend: CC-PVDZ-JKFIT
	 Reference Energy          =     -75.9305775390565429 [Eh]
	 Singles Energy            =      -0.0000000000000000 [Eh]
	 Same-Spin Energy          =      -0.0298113205980356 [Eh]
	 Opposite-Spin Energy      =      -0.0968944763252011 [Eh]
	 Correlation Energy        =      -0.1267057969232367 [Eh]
	 Total Energy              =     -76.0572833359797755 [Eh]

	 ================> DF-SCS-MP2 Energies <==================
	-----------------------------------------------------------
	 SCS Same-Spin Scale       =       0.3333333333333333 [-]
	 SCS Opposite-Spin Scale   =       1.2000000000000000 [-]
	 SCS Same-Spin Energy      =      -0.0099371068660119 [Eh]
	 SCS Opposite-Spin Energy  =      -0.1162733715902413 [Eh]
	 SCS Correlation Energy    =      -0.1262104784562532 [Eh]
	 SCS Total Energy          =     -76.0567880175128010 [Eh]
	-----------------------------------------------------------

  -Total Gradient:
     Atom            X                  Y                   Z
    ------   -----------------  -----------------  -----------------
       1        0.055039985122    -0.374483847266     0.000000000000
       2        0.017822407064     0.317449785502    -0.000000000000
       3       -0.072862392186     0.057034061763    -0.000000000000

*** Psi4 exiting successfully. Buy a developer a beer!
