                               Psi4 1.2a1.dev429

  ==> Input File <==

--------------------------------------------------------------------------
# density-fitted hartree fock energies and gradients with 6-31g
molecule h2o {
0 1
O 0.0000000000 0.0000000000 0.0000000000
H 0.0000000000 0.0000000000 1.5000000000
H 0.0000000000 0.0000000000 -1.5000000000
}

set basis 6-31g

gradient('mp2')
--------------------------------------------------------------------------

    Molecular point group: d2h
  Charge       = 0
  Multiplicity = 1
  Basis Set: 6-31G
    Blend: 6-31G
  Basis Set: (6-31G AUX)
    Blend: CC-PVDZ-JKFIT

    Orbital Energies (a.u.)
    -----------------------

    Doubly Occupied:

       1Ag   -20.510262     2Ag    -1.123191     1B1u   -0.476182
       1B2u   -0.404988     1B3u   -0.404988

  @DF-RHF Final Energy:   -75.68741652618542

   => Energetics <=

    Nuclear Repulsion Energy =              5.8209492944899983
    One-Electron Energy =                -117.1775085801017156
    Two-Electron Energy =                  35.6691427594263146
    Total Energy =                        -75.6874165261854159
  Basis Set: (6-31G AUX)
    Blend: CC-PVDZ-RI
    Molecular point group: d2h

    Geometry (in Angstrom), charge = 0, multiplicity = 1:

       Center              X                  Y                   Z               Mass
    ------------   -----------------  -----------------  -----------------  -----------------
           O          0.000000000000     0.000000000000     0.000000000000    15.994914619560
           H          0.000000000000     0.000000000000     1.500000000000     1.007825032070
           H          0.000000000000     0.000000000000    -1.500000000000     1.007825032070

  Basis Set: 6-31G
    Blend: 6-31G
  Basis Set: (6-31G AUX)
    Blend: CC-PVDZ-JKFIT
  Basis Set: (6-31G AUX)
    Blend: CC-PVDZ-JKFIT
	 Reference Energy          =     -75.6874165261854159 [Eh]
	 Singles Energy            =      -0.0000000000000000 [Eh]
	 Same-Spin Energy          =      -0.0344859451963813 [Eh]
	 Opposite-Spin Energy      =      -0.1158235412051036 [Eh]
	 Correlation Energy        =      -0.1503094864014849 [Eh]
	 Total Energy              =     -75.8377260125868986 [Eh]

	 ================> DF-SCS-MP2 Energies <==================
	-----------------------------------------------------------
	 SCS Same-Spin Scale       =       0.3333333333333333 [-]
	 SCS Opposite-Spin Scale   =       1.2000000000000000 [-]
	 SCS Same-Spin Energy      =      -0.0114953150654604 [Eh]
	 SCS Opposite-Spin Energy  =      -0.1389882494461243 [Eh]
	 SCS Correlation Energy    =      -0.1504835645115848 [Eh]
	 SCS Total Energy          =     -75.8379000906970049 [Eh]
	-----------------------------------------------------------

  -Total Gradient:
     Atom            X                  Y                   Z
    ------   -----------------  -----------------  -----------------
       1       -0.000000000000    -0.000000000000     0.000000000006
       2        0.000000000000     0.000000000000     0.111501235251
       3        0.000000000000     0.000000000000    -0.111501235257

*** Psi4 exiting successfully. Buy a developer a beer!
