                               Psi4 1.2a1.dev429

  ==> Input File <==

--------------------------------------------------------------------------
# density-fitted hartree fock energies and gradients with 6-31g
molecule o2 {
0 3
O 0.0000000000 0.0000000000 0.0000000000
O 0.0000000000 0.0000000000 1.2383838384
}

set basis 6-31g
set reference rohf

gradient('scf')
--------------------------------------------------------------------------

    Molecular point group: d2h
  Charge       = 0
  Multiplicity = 3
  Basis Set: 6-31G
    Blend: 6-31G
  Basis Set: (6-31G AUX)
    Blend: CC-PVDZ-JKFIT

    Orbital Energies (a.u.)
    -----------------------

    Doubly Occupied:

       1Ag   -20.753954     1B1u  -20.753214     2Ag    -1.660990
       2B1u   -1.112442     3Ag    -0.714792     1B2u   -0.703610
       1B3u   -0.703610

    Singly Occupied:

       1B3g   -0.241240     1B2g   -0.241240

  @DF-ROHF Final Energy:  -149.52454302861389

   => Energetics <=

    Nuclear Repulsion Energy =             27.3480162608685369
    One-Electron Energy =                -259.8135018366417626
    Two-Electron Energy =                  82.9409425471593238
    Total Energy =                       -149.5245430286138912
    Molecular point group: d2h

    Geometry (in Angstrom), charge = 0, multiplicity = 3:

       Center              X                  Y                   Z               Mass
    ------------   -----------------  -----------------  -----------------  -----------------
           O          0.000000000000     0.000000000000    -0.619191919200    15.994914619560
           O          0.000000000000     0.000000000000     0.619191919200    15.994914619560

  Basis Set: 6-31G
    Blend: 6-31G
  Basis Set: (6-31G AUX)
    Blend: CC-PVDZ-JKFIT

  -Total Gradient:
     Atom            X                  Y                   Z
    ------   -----------------  -----------------  -----------------
       1        0.000000000000     0.000000000000    -0.076215339114
       2        0.000000000000    -0.000000000000     0.076215339114

*** Psi4 exiting successfully. Buy a developer a beer!
