                               Psi4 1.2a1.dev429

  ==> Input File <==

--------------------------------------------------------------------------
# density-fitted hartree fock energies and gradients with 6-31g
molecule h20 {
0 1
O 0.0000000000 0.0000000000 0.0000000000
O 0.0000000000 0.0000000000 1.2383838384
}

set basis 6-31g

gradient('hf')
--------------------------------------------------------------------------

    Molecular point group: d2h
  Charge       = 0
  Multiplicity = 1
  Basis Set: 6-31G
    Blend: 6-31G
  Basis Set: (6-31G AUX)
    Blend: CC-PVDZ-JKFIT

    Orbital Energies (a.u.)
    -----------------------

    Doubly Occupied:

       1Ag   -20.762953     1B1u  -20.762207     2Ag    -1.665710
       2B1u   -1.116389     1B3u   -0.772679     3Ag    -0.718911
       1B2u   -0.643624     1B2g   -0.498824

  @DF-RHF Final Energy:  -149.45852306642846

   => Energetics <=

    Nuclear Repulsion Energy =             27.3480162608685369
    One-Electron Energy =                -259.7304842648226781
    Two-Electron Energy =                  82.9239449375256470
    Total Energy =                       -149.4585230664284836
    Molecular point group: d2h

    Geometry (in Angstrom), charge = 0, multiplicity = 1:

       Center              X                  Y                   Z               Mass
    ------------   -----------------  -----------------  -----------------  -----------------
           O          0.000000000000     0.000000000000    -0.619191919200    15.994914619560
           O          0.000000000000     0.000000000000     0.619191919200    15.994914619560

  Basis Set: 6-31G
    Blend: 6-31G
  Basis Set: (6-31G AUX)
    Blend: CC-PVDZ-JKFIT

  -Total Gradient:
     Atom            X                  Y                   Z
    ------   -----------------  -----------------  -----------------
       1        0.000000000000    -0.000000000000    -0.068022980348
       2        0.000000000000     0.000000000000     0.068022980348

*** Psi4 exiting successfully. Buy a developer a beer!
