                               Psi4 1.2a1.dev429

  ==> Input File <==

--------------------------------------------------------------------------
# density-fitted hartree fock energies and gradients with 6-31g
molecule h2o {
0 1
O 0.0000000000 0.0000000000 0.0000000000
H 0.0000000000 0.0000000000 1.5000000000
H 0.0000000000 1.3000000000 0.0000000000
}

set basis 6-31g

gradient('mp2')
--------------------------------------------------------------------------

    Molecular point group: cs
  Charge       = 0
  Multiplicity = 1
  Basis Set: 6-31G
    Blend: 6-31G
  Basis Set: (6-31G AUX)
    Blend: CC-PVDZ-JKFIT

    Orbital Energies (a.u.)
    -----------------------

    Doubly Occupied:

       1Ap   -20.644696     2Ap    -1.238576     3Ap    -0.541297
       1App   -0.506776     4Ap    -0.496386

  @DF-RHF Final Energy:   -75.81452404799241

   => Energetics <=

    Nuclear Repulsion Energy =              6.3453492018597162
    One-Electron Energy =                -117.4642845143989263
    Two-Electron Energy =                  35.3044112645467933
    Total Energy =                        -75.8145240479924212
  Basis Set: (6-31G AUX)
    Blend: CC-PVDZ-RI
    Molecular point group: cs

    Geometry (in Angstrom), charge = 0, multiplicity = 1:

       Center              X                  Y                   Z               Mass
    ------------   -----------------  -----------------  -----------------  -----------------
           O          0.072744667627     0.083936154954     0.000000000000    15.994914619560
           H          0.072744667627    -1.416063845046     0.000000000000     1.007825032070
           H         -1.227255332373     0.083936154954     0.000000000000     1.007825032070

  Basis Set: 6-31G
    Blend: 6-31G
  Basis Set: (6-31G AUX)
    Blend: CC-PVDZ-JKFIT
  Basis Set: (6-31G AUX)
    Blend: CC-PVDZ-JKFIT
	 Reference Energy          =     -75.8145240479924070 [Eh]
	 Singles Energy            =      -0.0000000000000000 [Eh]
	 Same-Spin Energy          =      -0.0394427812151489 [Eh]
	 Opposite-Spin Energy      =      -0.1368885533719197 [Eh]
	 Correlation Energy        =      -0.1763313345870686 [Eh]
	 Total Energy              =     -75.9908553825794826 [Eh]

	 ================> DF-SCS-MP2 Energies <==================
	-----------------------------------------------------------
	 SCS Same-Spin Scale       =       0.3333333333333333 [-]
	 SCS Opposite-Spin Scale   =       1.2000000000000000 [-]
	 SCS Same-Spin Energy      =      -0.0131475937383830 [Eh]
	 SCS Opposite-Spin Energy  =      -0.1642662640463036 [Eh]
	 SCS Correlation Energy    =      -0.1774138577846866 [Eh]
	 SCS Total Energy          =     -75.9919379057770925 [Eh]
	-----------------------------------------------------------

  -Total Gradient:
     Atom            X                  Y                   Z
    ------   -----------------  -----------------  -----------------
       1        0.093381928518     0.094023696334    -0.000000000000
       2       -0.000830428143    -0.093065506223     0.000000000000
       3       -0.092551500375    -0.000958190111     0.000000000000

*** Psi4 exiting successfully. Buy a developer a beer!
