                               Psi4 1.2a1.dev429

  ==> Input File <==

--------------------------------------------------------------------------
# density-fitted hartree fock energies and gradients with 6-31g
molecule h2o {
0 1
O 0.0000000000 0.0000000000 0.0000000000
H 0.0000000000 0.0000000000 1.3000000000
H 0.0000000000 0.5785088487 -0.6894399988
}

set basis 6-31g

gradient('mp2')
--------------------------------------------------------------------------

    Molecular point group: cs
  Charge       = 0
  Multiplicity = 1
  Basis Set: 6-31G
    Blend: 6-31G
  Basis Set: (6-31G AUX)
    Blend: CC-PVDZ-JKFIT

    Orbital Energies (a.u.)
    -----------------------

    Doubly Occupied:

       1Ap   -20.540756     2Ap    -1.285222     3Ap    -0.671255
       4Ap    -0.472169     1App   -0.469599

  @DF-RHF Final Energy:   -75.89234681790532

   => Energetics <=

    Nuclear Repulsion Energy =              8.2156859837444465
    One-Electron Energy =                -121.3380653476368138
    Two-Electron Energy =                  37.2300325459870436
    Total Energy =                        -75.8923468179053202
  Basis Set: (6-31G AUX)
    Blend: CC-PVDZ-RI
    Molecular point group: cs

    Geometry (in Angstrom), charge = 0, multiplicity = 1:

       Center              X                  Y                   Z               Mass
    ------------   -----------------  -----------------  -----------------  -----------------
           O          0.032371872245     0.034165372580     0.000000000000    15.994914619560
           H          0.032371872245    -1.265834627420     0.000000000000     1.007825032070
           H         -0.546136976455     0.723605371380     0.000000000000     1.007825032070

  Basis Set: 6-31G
    Blend: 6-31G
  Basis Set: (6-31G AUX)
    Blend: CC-PVDZ-JKFIT
  Basis Set: (6-31G AUX)
    Blend: CC-PVDZ-JKFIT
	 Reference Energy          =     -75.8923468179053202 [Eh]
	 Singles Energy            =      -0.0000000000000000 [Eh]
	 Same-Spin Energy          =      -0.0324395547263271 [Eh]
	 Opposite-Spin Energy      =      -0.1056440361836618 [Eh]
	 Correlation Energy        =      -0.1380835909099889 [Eh]
	 Total Energy              =     -76.0304304088153060 [Eh]

	 ================> DF-SCS-MP2 Energies <==================
	-----------------------------------------------------------
	 SCS Same-Spin Scale       =       0.3333333333333333 [-]
	 SCS Opposite-Spin Scale   =       1.2000000000000000 [-]
	 SCS Same-Spin Energy      =      -0.0108131849087757 [Eh]
	 SCS Opposite-Spin Energy  =      -0.1267728434203941 [Eh]
	 SCS Correlation Energy    =      -0.1375860283291698 [Eh]
	 SCS Total Energy          =     -76.0299328462344874 [Eh]
	-----------------------------------------------------------

  -Total Gradient:
     Atom            X                  Y                   Z
    ------   -----------------  -----------------  -----------------
       1       -0.121658444742     0.165279916875     0.000000000000
       2        0.030789088319    -0.126173939621    -0.000000000000
       3        0.090869356423    -0.039105977254     0.000000000000

*** Psi4 exiting successfully. Buy a developer a beer!
