                               Psi4 1.2a1.dev429

  ==> Input File <==

--------------------------------------------------------------------------
# density-fitted hartree fock energies and gradients with 6-31g
molecule h2o {
0 1
O 0.0000000000 0.0000000000 0.0000000000
H 0.0000000000 0.0000000000 1.5000000000
H 0.0000000000 0.1910129954 -1.0832885283
}

set basis 6-31g

gradient('mp2')
--------------------------------------------------------------------------

    Molecular point group: cs
  Charge       = 0
  Multiplicity = 1
  Basis Set: 6-31G
    Blend: 6-31G
  Basis Set: (6-31G AUX)
    Blend: CC-PVDZ-JKFIT

    Orbital Energies (a.u.)
    -----------------------

    Doubly Occupied:

       1Ap   -20.507496     2Ap    -1.176449     3Ap    -0.564373
       1App   -0.419797     4Ap    -0.414804

  @DF-RHF Final Energy:   -75.78620128161586

   => Energetics <=

    Nuclear Repulsion Energy =              6.8751286046368598
    One-Electron Energy =                -119.1568198880194842
    Two-Electron Energy =                  36.4954900017667541
    Total Energy =                        -75.7862012816158739
  Basis Set: (6-31G AUX)
    Blend: CC-PVDZ-RI
    Molecular point group: cs

    Geometry (in Angstrom), charge = 0, multiplicity = 1:

       Center              X                  Y                   Z               Mass
    ------------   -----------------  -----------------  -----------------  -----------------
           O          0.010688597587     0.023318105773     0.000000000000    15.994914619560
           H          0.010688597587    -1.476681894227     0.000000000000     1.007825032070
           H         -0.180324397813     1.106606634073     0.000000000000     1.007825032070

  Basis Set: 6-31G
    Blend: 6-31G
  Basis Set: (6-31G AUX)
    Blend: CC-PVDZ-JKFIT
  Basis Set: (6-31G AUX)
    Blend: CC-PVDZ-JKFIT
	 Reference Energy          =     -75.7862012816158597 [Eh]
	 Singles Energy            =      -0.0000000000000000 [Eh]
	 Same-Spin Energy          =      -0.0345990631854380 [Eh]
	 Opposite-Spin Energy      =      -0.1111254765040968 [Eh]
	 Correlation Energy        =      -0.1457245396895348 [Eh]
	 Total Energy              =     -75.9319258213053985 [Eh]

	 ================> DF-SCS-MP2 Energies <==================
	-----------------------------------------------------------
	 SCS Same-Spin Scale       =       0.3333333333333333 [-]
	 SCS Opposite-Spin Scale   =       1.2000000000000000 [-]
	 SCS Same-Spin Energy      =      -0.0115330210618127 [Eh]
	 SCS Opposite-Spin Energy  =      -0.1333505718049162 [Eh]
	 SCS Correlation Energy    =      -0.1448835928667289 [Eh]
	 SCS Total Energy          =     -75.9310848744825932 [Eh]
	-----------------------------------------------------------

  -Total Gradient:
     Atom            X                  Y                   Z
    ------   -----------------  -----------------  -----------------
       1       -0.047327743359     0.031032135296     0.000000000000
       2        0.026644162841    -0.122962837711    -0.000000000000
       3        0.020683580518     0.091930702415    -0.000000000000

*** Psi4 exiting successfully. Buy a developer a beer!
