                               Psi4 1.2a1.dev429

  ==> Input File <==

--------------------------------------------------------------------------
# density-fitted hartree fock energies and gradients with 6-31g
molecule o2 {
0 3
O 0.0000000000 0.0000000000 0.0000000000
O 0.0000000000 0.0000000000 1.2313131313
}

set basis 6-31g
set reference rohf

gradient('scf')
--------------------------------------------------------------------------

    Molecular point group: d2h
  Charge       = 0
  Multiplicity = 3
  Basis Set: 6-31G
    Blend: 6-31G
  Basis Set: (6-31G AUX)
    Blend: CC-PVDZ-JKFIT

    Orbital Energies (a.u.)
    -----------------------

    Doubly Occupied:

       1Ag   -20.752723     1B1u  -20.751964     2Ag    -1.667495
       2B1u   -1.109878     3Ag    -0.716833     1B2u   -0.706344
       1B3u   -0.706344

    Singly Occupied:

       1B3g   -0.238569     1B2g   -0.238569

  @DF-ROHF Final Energy:  -149.52550023785855

   => Energetics <=

    Nuclear Repulsion Energy =             27.5050598331582918
    One-Electron Energy =                -260.1162130736867084
    Two-Electron Energy =                  83.0856530026698579
    Total Energy =                       -149.5255002378585516
    Molecular point group: d2h

    Geometry (in Angstrom), charge = 0, multiplicity = 3:

       Center              X                  Y                   Z               Mass
    ------------   -----------------  -----------------  -----------------  -----------------
           O          0.000000000000     0.000000000000    -0.615656565650    15.994914619560
           O          0.000000000000     0.000000000000     0.615656565650    15.994914619560

  Basis Set: 6-31G
    Blend: 6-31G
  Basis Set: (6-31G AUX)
    Blend: CC-PVDZ-JKFIT

  -Total Gradient:
     Atom            X                  Y                   Z
    ------   -----------------  -----------------  -----------------
       1        0.000000000000    -0.000000000000    -0.066979262554
       2        0.000000000000     0.000000000000     0.066979262554

*** Psi4 exiting successfully. Buy a developer a beer!
