                               Psi4 1.2a1.dev429

  ==> Input File <==

--------------------------------------------------------------------------
# density-fitted hartree fock energies and gradients with 6-31g
molecule h20 {
0 1
O 0.0000000000 0.0000000000 0.0000000000
O 0.0000000000 0.0000000000 1.2313131313
}

set basis 6-31g

gradient('hf')
--------------------------------------------------------------------------

    Molecular point group: d2h
  Charge       = 0
  Multiplicity = 1
  Basis Set: 6-31G
    Blend: 6-31G
  Basis Set: (6-31G AUX)
    Blend: CC-PVDZ-JKFIT

    Orbital Energies (a.u.)
    -----------------------

    Doubly Occupied:

       1Ag   -20.761770     1B1u  -20.761003     2Ag    -1.672263
       2B1u   -1.113842     1B2u   -0.775089     3Ag    -0.720974
       1B3u   -0.646706     1B3g   -0.496397

  @DF-RHF Final Energy:  -149.45937082305713

   => Energetics <=

    Nuclear Repulsion Energy =             27.5050598331582918
    One-Electron Energy =                -260.0327748736344802
    Two-Electron Energy =                  83.0683442174190674
    Total Energy =                       -149.4593708230570996
    Molecular point group: d2h

    Geometry (in Angstrom), charge = 0, multiplicity = 1:

       Center              X                  Y                   Z               Mass
    ------------   -----------------  -----------------  -----------------  -----------------
           O          0.000000000000     0.000000000000    -0.615656565650    15.994914619560
           O          0.000000000000     0.000000000000     0.615656565650    15.994914619560

  Basis Set: 6-31G
    Blend: 6-31G
  Basis Set: (6-31G AUX)
    Blend: CC-PVDZ-JKFIT

  -Total Gradient:
     Atom            X                  Y                   Z
    ------   -----------------  -----------------  -----------------
       1        0.000000000000    -0.000000000000    -0.058789282808
       2        0.000000000000     0.000000000000     0.058789282808

*** Psi4 exiting successfully. Buy a developer a beer!
