                               Psi4 1.2a1.dev429

  ==> Input File <==

--------------------------------------------------------------------------
# density-fitted hartree fock energies and gradients with 6-31g
molecule h2o {
0 1
O 0.0000000000 0.0000000000 0.0000000000
H 0.0000000000 0.0000000000 0.8000000000
H 0.0000000000 0.7794228634 -0.4500000000
}

set basis 6-31g

gradient('mp2')
--------------------------------------------------------------------------

    Molecular point group: cs
  Charge       = 0
  Multiplicity = 1
  Basis Set: 6-31G
    Blend: 6-31G
  Basis Set: (6-31G AUX)
    Blend: CC-PVDZ-JKFIT

    Orbital Energies (a.u.)
    -----------------------

    Doubly Occupied:

       1Ap   -20.529219     2Ap    -1.405737     3Ap    -0.805867
       4Ap    -0.547312     1App   -0.503506

  @DF-RHF Final Energy:   -75.94851515877752

   => Energetics <=

    Nuclear Repulsion Energy =             10.3547983920630369
    One-Electron Energy =                -125.0233436694134639
    Two-Electron Energy =                  38.7200301185729074
    Total Energy =                        -75.9485151587775249
  Basis Set: (6-31G AUX)
    Blend: CC-PVDZ-RI
    Molecular point group: cs

    Geometry (in Angstrom), charge = 0, multiplicity = 1:

       Center              X                  Y                   Z               Mass
    ------------   -----------------  -----------------  -----------------  -----------------
           O          0.043614505491     0.019585102823     0.000000000000    15.994914619560
           H          0.043614505491    -0.780414897177     0.000000000000     1.007825032070
           H         -0.735808357909     0.469585102823     0.000000000000     1.007825032070

  Basis Set: 6-31G
    Blend: 6-31G
  Basis Set: (6-31G AUX)
    Blend: CC-PVDZ-JKFIT
  Basis Set: (6-31G AUX)
    Blend: CC-PVDZ-JKFIT
	 Reference Energy          =     -75.9485151587775249 [Eh]
	 Singles Energy            =      -0.0000000000000000 [Eh]
	 Same-Spin Energy          =      -0.0281536496583994 [Eh]
	 Opposite-Spin Energy      =      -0.0906020217063767 [Eh]
	 Correlation Energy        =      -0.1187556713647761 [Eh]
	 Total Energy              =     -76.0672708301423057 [Eh]

	 ================> DF-SCS-MP2 Energies <==================
	-----------------------------------------------------------
	 SCS Same-Spin Scale       =       0.3333333333333333 [-]
	 SCS Opposite-Spin Scale   =       1.2000000000000000 [-]
	 SCS Same-Spin Energy      =      -0.0093845498861331 [Eh]
	 SCS Opposite-Spin Energy  =      -0.1087224260476520 [Eh]
	 SCS Correlation Energy    =      -0.1181069759337852 [Eh]
	 SCS Total Energy          =     -76.0666221347113094 [Eh]
	-----------------------------------------------------------

  -Total Gradient:
     Atom            X                  Y                   Z
    ------   -----------------  -----------------  -----------------
       1       -0.077078976310    -0.275414417797    -0.000000000000
       2        0.006167988077     0.310024073148    -0.000000000000
       3        0.070910988234    -0.034609655351     0.000000000000

*** Psi4 exiting successfully. Buy a developer a beer!
