                               Psi4 1.2a1.dev429

  ==> Input File <==

--------------------------------------------------------------------------
# density-fitted hartree fock energies and gradients with 6-31g
molecule h20 {
0 1
O 0.0000000000 0.0000000000 0.0000000000
H 0.0000000000 0.0000000000 0.8000000000
H 0.0000000000 0.1389185421 -0.7878462024
}

set basis 6-31g

gradient('hf')
--------------------------------------------------------------------------

    Molecular point group: c2v
  Charge       = 0
  Multiplicity = 1
  Basis Set: 6-31G
    Blend: 6-31G
  Basis Set: (6-31G AUX)
    Blend: CC-PVDZ-JKFIT

    Orbital Energies (a.u.)
    -----------------------

    Doubly Occupied:

       1A1   -20.497352     2A1    -1.389978     1B2    -0.898996
       3A1    -0.498577     1B1    -0.497287

  @DF-RHF Final Energy:   -75.89427189644780

   => Energetics <=

    Nuclear Repulsion Energy =             10.9155432841288196
    One-Electron Energy =                -126.0552505325452728
    Two-Electron Energy =                  39.2454353519686450
    Total Energy =                        -75.8942718964478047
    Molecular point group: c2v

    Geometry (in Angstrom), charge = 0, multiplicity = 1:

       Center              X                  Y                   Z               Mass
    ------------   -----------------  -----------------  -----------------  -----------------
           O          0.000000000000     0.000000000000    -0.007803219122    15.994914619560
           H          0.000000000000    -0.796955758467     0.061921375060     1.007825032070
           H         -0.000000000000     0.796955758467     0.061921375060     1.007825032070

  Basis Set: 6-31G
    Blend: 6-31G
  Basis Set: (6-31G AUX)
    Blend: CC-PVDZ-JKFIT

  -Total Gradient:
     Atom            X                  Y                   Z
    ------   -----------------  -----------------  -----------------
       1        0.000000000000     0.000000000000     0.067748056210
       2       -0.000000000000     0.255371330956    -0.033874028105
       3        0.000000000000    -0.255371330956    -0.033874028105

*** Psi4 exiting successfully. Buy a developer a beer!
