                               Psi4 1.2a1.dev429

  ==> Input File <==

--------------------------------------------------------------------------
# density-fitted hartree fock energies and gradients with 6-31g
molecule h20 {
0 1
O 0.0000000000 0.0000000000 0.0000000000
H 0.0000000000 0.0000000000 1.4000000000
H 0.0000000000 0.3762221577 -1.0336618829
}

set basis 6-31g

gradient('hf')
--------------------------------------------------------------------------

    Molecular point group: cs
  Charge       = 0
  Multiplicity = 1
  Basis Set: 6-31G
    Blend: 6-31G
  Basis Set: (6-31G AUX)
    Blend: CC-PVDZ-JKFIT

    Orbital Energies (a.u.)
    -----------------------

    Doubly Occupied:

       1Ap   -20.526475     2Ap    -1.197615     3Ap    -0.591566
       1App   -0.436990     4Ap    -0.429643

  @DF-RHF Final Energy:   -75.82408953730837

   => Energetics <=

    Nuclear Repulsion Energy =              7.0873194294591437
    One-Electron Energy =                -119.4582387472135139
    Two-Electron Energy =                  36.5468297804459965
    Total Energy =                        -75.8240895373083674
    Molecular point group: cs

    Geometry (in Angstrom), charge = 0, multiplicity = 1:

       Center              X                  Y                   Z               Mass
    ------------   -----------------  -----------------  -----------------  -----------------
           O          0.021052427551     0.020499341975     0.000000000000    15.994914619560
           H          0.021052427551    -1.379500658025     0.000000000000     1.007825032070
           H         -0.355169730149     1.054161224875     0.000000000000     1.007825032070

  Basis Set: 6-31G
    Blend: 6-31G
  Basis Set: (6-31G AUX)
    Blend: CC-PVDZ-JKFIT

  -Total Gradient:
     Atom            X                  Y                   Z
    ------   -----------------  -----------------  -----------------
       1       -0.023166443547     0.036405198867     0.000000000000
       2        0.026587711115    -0.144743391438     0.000000000000
       3       -0.003421267569     0.108338192571     0.000000000000

*** Psi4 exiting successfully. Buy a developer a beer!
