                               Psi4 1.2a1.dev429

  ==> Input File <==

--------------------------------------------------------------------------
# density-fitted hartree fock energies and gradients with 6-31g
molecule h2o {
0 1
O 0.0000000000 0.0000000000 0.0000000000
H 0.0000000000 0.0000000000 0.9000000000
H 0.0000000000 0.8457233587 -0.3078181290
}

set basis 6-31g

gradient('mp2')
--------------------------------------------------------------------------

    Molecular point group: c2v
  Charge       = 0
  Multiplicity = 1
  Basis Set: 6-31G
    Blend: 6-31G
  Basis Set: (6-31G AUX)
    Blend: CC-PVDZ-JKFIT

    Orbital Energies (a.u.)
    -----------------------

    Doubly Occupied:

       1A1   -20.545179     2A1    -1.382760     1B2    -0.754387
       3A1    -0.558490     1B1    -0.502664

  @DF-RHF Final Energy:   -75.97927555949276

   => Energetics <=

    Nuclear Repulsion Energy =              9.7664870911779165
    One-Electron Energy =                -124.0045647590775246
    Two-Electron Energy =                  38.2588021084068544
    Total Energy =                        -75.9792755594927485
  Basis Set: (6-31G AUX)
    Blend: CC-PVDZ-RI
    Molecular point group: c2v

    Geometry (in Angstrom), charge = 0, multiplicity = 1:

       Center              X                  Y                   Z               Mass
    ------------   -----------------  -----------------  -----------------  -----------------
           O          0.000000000000     0.000000000000    -0.057772560767    15.994914619560
           H          0.000000000000    -0.737236839861     0.458446231944     1.007825032070
           H         -0.000000000000     0.737236839861     0.458446231944     1.007825032070

  Basis Set: 6-31G
    Blend: 6-31G
  Basis Set: (6-31G AUX)
    Blend: CC-PVDZ-JKFIT
  Basis Set: (6-31G AUX)
    Blend: CC-PVDZ-JKFIT
	 Reference Energy          =     -75.9792755594927627 [Eh]
	 Singles Energy            =      -0.0000000000000000 [Eh]
	 Same-Spin Energy          =      -0.0290119583244763 [Eh]
	 Opposite-Spin Energy      =      -0.0943381972101142 [Eh]
	 Correlation Energy        =      -0.1233501555345905 [Eh]
	 Total Energy              =     -76.1026257150273580 [Eh]

	 ================> DF-SCS-MP2 Energies <==================
	-----------------------------------------------------------
	 SCS Same-Spin Scale       =       0.3333333333333333 [-]
	 SCS Opposite-Spin Scale   =       1.2000000000000000 [-]
	 SCS Same-Spin Energy      =      -0.0096706527748254 [Eh]
	 SCS Opposite-Spin Energy  =      -0.1132058366521370 [Eh]
	 SCS Correlation Energy    =      -0.1228764894269625 [Eh]
	 SCS Total Energy          =     -76.1021520489197201 [Eh]
	-----------------------------------------------------------

  -Total Gradient:
     Atom            X                  Y                   Z
    ------   -----------------  -----------------  -----------------
       1        0.000000000000    -0.000000000008     0.093211627971
       2       -0.000000000000     0.077714988240    -0.046605813988
       3       -0.000000000000    -0.077714988232    -0.046605813983

*** Psi4 exiting successfully. Buy a developer a beer!
