                               Psi4 1.2a1.dev429

  ==> Input File <==

--------------------------------------------------------------------------
# density-fitted hartree fock energies and gradients with 6-31g
molecule h20 {
0 1
O 0.0000000000 0.0000000000 0.0000000000
H 0.0000000000 0.0000000000 0.7000000000
H 0.0000000000 0.6062177826 -0.3500000000
}

set basis 6-31g

gradient('hf')
--------------------------------------------------------------------------

    Molecular point group: c2v
  Charge       = 0
  Multiplicity = 1
  Basis Set: 6-31G
    Blend: 6-31G
  Basis Set: (6-31G AUX)
    Blend: CC-PVDZ-JKFIT

    Orbital Energies (a.u.)
    -----------------------

    Doubly Occupied:

       1A1   -20.507849     2A1    -1.517109     1B2    -0.925895
       3A1    -0.571799     1B1    -0.523878

  @DF-RHF Final Energy:   -75.73833360350817

   => Energetics <=

    Nuclear Repulsion Energy =             12.5319370593311987
    One-Electron Energy =                -128.4474802106291804
    Two-Electron Energy =                  40.1772095477898148
    Total Energy =                        -75.7383336035081669
    Molecular point group: c2v

    Geometry (in Angstrom), charge = 0, multiplicity = 1:

       Center              X                  Y                   Z               Mass
    ------------   -----------------  -----------------  -----------------  -----------------
           O         -0.000000000000     0.000000000000    -0.039170205643    15.994914619560
           H          0.000000000000    -0.606217782637     0.310829794336     1.007825032070
           H         -0.000000000000     0.606217782637     0.310829794336     1.007825032070

  Basis Set: 6-31G
    Blend: 6-31G
  Basis Set: (6-31G AUX)
    Blend: CC-PVDZ-JKFIT

  -Total Gradient:
     Atom            X                  Y                   Z
    ------   -----------------  -----------------  -----------------
       1       -0.000000000000     0.000000000000     0.701275236999
       2       -0.000000000000     0.629388264754    -0.350637618500
       3        0.000000000000    -0.629388264754    -0.350637618500

*** Psi4 exiting successfully. Buy a developer a beer!
