                               Psi4 1.3.1 release

  ==> Input File <==

--------------------------------------------------------------------------
# density fitted MP2
molecule h2o {
0 1
H 0.0000000000 0.0000000000 1.0250000000
H 0.0000000000 0.7361215932 -0.4250000000
O 0.0000000000 0.0000000000 0.0000000000
}

set basis 6-31g
energy('mp2')

--------------------------------------------------------------------------

    Molecular point group: cs

    Geometry (in Angstrom), charge = 0, multiplicity = 1:

       Center              X                  Y                   Z               Mass
    ------------   -----------------  -----------------  -----------------  -----------------
         H            0.041191477414    -0.991425538014     0.000000000000     1.007825032230
         H           -0.694930115786     0.458574461986     0.000000000000     1.007825032230
         O            0.041191477414     0.033574461986     0.000000000000    15.994914619570

  Charge       = 0
  Multiplicity = 1
  Basis Set: 6-31G
    Blend: 6-31G
  Basis Set: (6-31G AUX)
    Blend: CC-PVDZ-JKFIT

    Orbital Energies [Eh]
    ---------------------

    Doubly Occupied:

       1Ap   -20.543583     2Ap    -1.358352     3Ap    -0.746437
       4Ap    -0.533258     1App   -0.495302

  @DF-RHF Final Energy:   -75.96489461501007

   => Energetics <=

    Nuclear Repulsion Energy =              9.4360715213435533
    One-Electron Energy =                -123.4480679141870780
    Two-Electron Energy =                  38.0471017778334613
    Total Energy =                        -75.9648946150100670

  Dipole Moment: [D]
     X:    -1.9234      Y:    -1.3158      Z:     0.0000     Total:     2.3304

  Basis Set: (6-31G AUX)
    Blend: CC-PVDZ-RI
	 Reference Energy          =     -75.9648946150100670 [Eh]
	 Singles Energy            =      -0.0000000000000000 [Eh]
	 Same-Spin Energy          =      -0.0298085532117217 [Eh]
	 Opposite-Spin Energy      =      -0.0962869610302868 [Eh]
	 Correlation Energy        =      -0.1260955142420086 [Eh]
	 Total Energy              =     -76.0909901292520772 [Eh]

	 ================> DF-SCS-MP2 Energies <==================
	-----------------------------------------------------------
	 SCS Same-Spin Scale       =       0.3333333333333333 [-]
	 SCS Opposite-Spin Scale   =       1.2000000000000000 [-]
	 SCS Same-Spin Energy      =      -0.0099361844039072 [Eh]
	 SCS Opposite-Spin Energy  =      -0.1155443532363442 [Eh]
	 SCS Correlation Energy    =      -0.1254805376402515 [Eh]
	 SCS Total Energy          =     -76.0903751526503243 [Eh]
	-----------------------------------------------------------

*** Psi4 exiting successfully. Buy a developer a beer!
