                               Psi4 1.2a1.dev429

  ==> Input File <==

--------------------------------------------------------------------------
# density-fitted hartree fock energies and gradients with 6-31g
molecule h20 {
0 1
O 0.0000000000 0.0000000000 0.0000000000
H 0.0000000000 0.0000000000 0.9000000000
H 0.0000000000 0.8457233587 -0.3078181290
}

set basis 6-31g

gradient('hf')
--------------------------------------------------------------------------

    Molecular point group: c2v
  Charge       = 0
  Multiplicity = 1
  Basis Set: 6-31G
    Blend: 6-31G
  Basis Set: (6-31G AUX)
    Blend: CC-PVDZ-JKFIT

    Orbital Energies (a.u.)
    -----------------------

    Doubly Occupied:

       1A1   -20.545179     2A1    -1.382760     1B2    -0.754387
       3A1    -0.558490     1B1    -0.502664

  @DF-RHF Final Energy:   -75.97927555949275

   => Energetics <=

    Nuclear Repulsion Energy =              9.7664870911779165
    One-Electron Energy =                -124.0045647589327302
    Two-Electron Energy =                  38.2588021082620457
    Total Energy =                        -75.9792755594927627
    Molecular point group: c2v

    Geometry (in Angstrom), charge = 0, multiplicity = 1:

       Center              X                  Y                   Z               Mass
    ------------   -----------------  -----------------  -----------------  -----------------
           O          0.000000000000     0.000000000000    -0.057772560767    15.994914619560
           H          0.000000000000    -0.737236839861     0.458446231944     1.007825032070
           H         -0.000000000000     0.737236839861     0.458446231944     1.007825032070

  Basis Set: 6-31G
    Blend: 6-31G
  Basis Set: (6-31G AUX)
    Blend: CC-PVDZ-JKFIT

  -Total Gradient:
     Atom            X                  Y                   Z
    ------   -----------------  -----------------  -----------------
       1       -0.000000000000     0.000000000000     0.064497821295
       2       -0.000000000000     0.058891081212    -0.032248910647
       3        0.000000000000    -0.058891081212    -0.032248910647

*** Psi4 exiting successfully. Buy a developer a beer!
