                               Psi4 1.2.1 release

  ==> Input File <==

--------------------------------------------------------------------------
# density fitted hartree fock
molecule h2o {
0 1
H 0.0000000000 0.0000000000 0.9375000000
H 0.0000000000 0.8427281322 -0.1109472634
O 0.0000000000 0.0000000000 0.0000000000
}

set basis 6-31g
energy('hf')

--------------------------------------------------------------------------

    Molecular point group: cs

    Geometry (in Angstrom), charge = 0, multiplicity = 1:

       Center              X                  Y                   Z               Mass
    ------------   -----------------  -----------------  -----------------  -----------------
         H            0.047156906059    -0.891248227615     0.000000000000     1.007825032070
         H           -0.795571226141     0.157199035785     0.000000000000     1.007825032070
         O            0.047156906059     0.046251772385     0.000000000000    15.994914619560

  Charge       = 0
  Multiplicity = 1
  Basis Set: 6-31G
    Blend: 6-31G
  Basis Set: (6-31G AUX)
    Blend: CC-PVDZ-JKFIT

    Orbital Energies [Eh]
    ---------------------

    Doubly Occupied:

       1Ap   -20.552083     2Ap    -1.405186     3Ap    -0.732681
       4Ap    -0.583391     1App   -0.508577

  @DF-RHF Final Energy:   -75.96384696898609

   => Energetics <=

    Nuclear Repulsion Energy =              9.8895329005103640
    One-Electron Energy =                -124.1429277875350152
    Two-Electron Energy =                  38.2895479180385649
    Total Energy =                        -75.9638469689860898

  Dipole Moment: [D]
     X:    -2.0208      Y:    -1.8110      Z:     0.0000     Total:     2.7135

*** Psi4 exiting successfully. Buy a developer a beer!
