                               Psi4 1.2a1.dev429

  ==> Input File <==

--------------------------------------------------------------------------
# density-fitted hartree fock energies and gradients with 6-31g
molecule h2o {
0 1
O 0.0000000000 0.0000000000 0.0000000000
H 0.0000000000 0.0000000000 0.9000000000
H 0.0000000000 0.7500000000 -1.2990381057
}

set basis 6-31g

gradient('mp2')
--------------------------------------------------------------------------

    Molecular point group: cs
  Charge       = 0
  Multiplicity = 1
  Basis Set: 6-31G
    Blend: 6-31G
  Basis Set: (6-31G AUX)
    Blend: CC-PVDZ-JKFIT

    Orbital Energies (a.u.)
    -----------------------

    Doubly Occupied:

       1Ap   -20.530315     2Ap    -1.262424     3Ap    -0.631075
       1App   -0.454221     4Ap    -0.439401

  @DF-RHF Final Energy:   -75.82407344341786

   => Energetics <=

    Nuclear Repulsion Energy =              7.7538339844936131
    One-Electron Energy =                -120.5209422118221738
    Two-Electron Energy =                  36.9430347839107185
    Total Energy =                        -75.8240734434178449
  Basis Set: (6-31G AUX)
    Blend: CC-PVDZ-RI
    Molecular point group: cs

    Geometry (in Angstrom), charge = 0, multiplicity = 1:

       Center              X                  Y                   Z               Mass
    ------------   -----------------  -----------------  -----------------  -----------------
           O          0.041968077477    -0.022329149515     0.000000000000    15.994914619560
           H          0.041968077477    -0.922329149515     0.000000000000     1.007825032070
           H         -0.708031922523     1.276708956185     0.000000000000     1.007825032070

  Basis Set: 6-31G
    Blend: 6-31G
  Basis Set: (6-31G AUX)
    Blend: CC-PVDZ-JKFIT
  Basis Set: (6-31G AUX)
    Blend: CC-PVDZ-JKFIT
	 Reference Energy          =     -75.8240734434178592 [Eh]
	 Singles Energy            =      -0.0000000000000000 [Eh]
	 Same-Spin Energy          =      -0.0336548398260146 [Eh]
	 Opposite-Spin Energy      =      -0.1121242039941054 [Eh]
	 Correlation Energy        =      -0.1457790438201200 [Eh]
	 Total Energy              =     -75.9698524872379721 [Eh]

	 ================> DF-SCS-MP2 Energies <==================
	-----------------------------------------------------------
	 SCS Same-Spin Scale       =       0.3333333333333333 [-]
	 SCS Opposite-Spin Scale   =       1.2000000000000000 [-]
	 SCS Same-Spin Energy      =      -0.0112182799420049 [Eh]
	 SCS Opposite-Spin Energy  =      -0.1345490447929265 [Eh]
	 SCS Correlation Energy    =      -0.1457673247349313 [Eh]
	 SCS Total Energy          =     -75.9698407681527925 [Eh]
	-----------------------------------------------------------

  -Total Gradient:
     Atom            X                  Y                   Z
    ------   -----------------  -----------------  -----------------
       1       -0.025214381680    -0.207372763065    -0.000000000000
       2        0.053719428958     0.093537258905     0.000000000000
       3       -0.028505047278     0.113835504160    -0.000000000000

*** Psi4 exiting successfully. Buy a developer a beer!
