                               Psi4 1.2a1.dev429

  ==> Input File <==

--------------------------------------------------------------------------
# density-fitted hartree fock energies and gradients with 6-31g
molecule h2o {
0 1
O 0.0000000000 0.0000000000 0.0000000000
H 0.0000000000 0.0000000000 0.9000000000
H 0.0000000000 1.2124355653 -0.7000000000
}

set basis 6-31g

gradient('mp2')
--------------------------------------------------------------------------

    Molecular point group: cs
  Charge       = 0
  Multiplicity = 1
  Basis Set: 6-31G
    Blend: 6-31G
  Basis Set: (6-31G AUX)
    Blend: CC-PVDZ-JKFIT

    Orbital Energies (a.u.)
    -----------------------

    Doubly Occupied:

       1Ap   -20.572292     2Ap    -1.302712     3Ap    -0.651279
       4Ap    -0.489909     1App   -0.487301

  @DF-RHF Final Energy:   -75.88626476580890

   => Energetics <=

    Nuclear Repulsion Energy =              7.9912691165966949
    One-Electron Energy =                -120.7480812010086737
    Two-Electron Energy =                  36.8705473186030801
    Total Energy =                        -75.8862647658089031
  Basis Set: (6-31G AUX)
    Blend: CC-PVDZ-RI
    Molecular point group: cs

    Geometry (in Angstrom), charge = 0, multiplicity = 1:

       Center              X                  Y                   Z               Mass
    ------------   -----------------  -----------------  -----------------  -----------------
           O          0.067844786321     0.011191487327     0.000000000000    15.994914619560
           H          0.067844786321    -0.888808512673     0.000000000000     1.007825032070
           H         -1.144590778979     0.711191487327     0.000000000000     1.007825032070

  Basis Set: 6-31G
    Blend: 6-31G
  Basis Set: (6-31G AUX)
    Blend: CC-PVDZ-JKFIT
  Basis Set: (6-31G AUX)
    Blend: CC-PVDZ-JKFIT
	 Reference Energy          =     -75.8862647658089031 [Eh]
	 Singles Energy            =      -0.0000000000000000 [Eh]
	 Same-Spin Energy          =      -0.0328237980184467 [Eh]
	 Opposite-Spin Energy      =      -0.1110730850933975 [Eh]
	 Correlation Energy        =      -0.1438968831118442 [Eh]
	 Total Energy              =     -76.0301616489207532 [Eh]

	 ================> DF-SCS-MP2 Energies <==================
	-----------------------------------------------------------
	 SCS Same-Spin Scale       =       0.3333333333333333 [-]
	 SCS Opposite-Spin Scale   =       1.2000000000000000 [-]
	 SCS Same-Spin Energy      =      -0.0109412660061489 [Eh]
	 SCS Opposite-Spin Energy  =      -0.1332877021120770 [Eh]
	 SCS Correlation Energy    =      -0.1442289681182259 [Eh]
	 SCS Total Energy          =     -76.0304937339271305 [Eh]
	-----------------------------------------------------------

  -Total Gradient:
     Atom            X                  Y                   Z
    ------   -----------------  -----------------  -----------------
       1        0.061966295997    -0.173957856151     0.000000000000
       2        0.028658480382     0.100362212519     0.000000000000
       3       -0.090624776379     0.073595643631    -0.000000000000

*** Psi4 exiting successfully. Buy a developer a beer!
