                               Psi4 1.2a1.dev429

  ==> Input File <==

--------------------------------------------------------------------------
# density-fitted MP2 energies and gradients with 6-31g

molecule h20 {
0 2
C 0.0000000000 0.0000000000 0.0000000000
H 0.0000000000 0.0000000000 2.0000000000
H 0.0000000000 0.8660254038 -0.5000000000
H 0.0000000000 -0.8660254038 -0.5000000000
}

set reference uhf
set basis 6-31g

gradient('mp2')
--------------------------------------------------------------------------

    Molecular point group: c1

    Geometry (in Angstrom), charge = 0, multiplicity = 2:

       Center              X                  Y                   Z               Mass
    ------------   -----------------  -----------------  -----------------  -----------------
           C          0.000000000000     0.000000000000    -0.067083349599    12.000000000000
           H          0.000000000000     0.000000000000     1.932916650401     1.007825032070
           H         -0.000000000000     0.866025403800    -0.567083349599     1.007825032070
           H          0.000000000000    -0.866025403800    -0.567083349599     1.007825032070

  Charge       = 0
  Multiplicity = 2
  Basis Set: 6-31G
    Blend: 6-31G
  Basis Set: (6-31G AUX)
    Blend: CC-PVDZ-JKFIT

    Orbital Energies (a.u.)
    -----------------------

    Alpha Occupied:

       1A    -11.289056     2A     -0.950661     3A     -0.629788
       4A     -0.407086     5A     -0.402885

    Alpha Virtual:

       6A      0.060753     7A      0.286341     8A      0.343269
       9A      0.715051    10A      0.722575    11A      0.786639
      12A      0.966697    13A      1.052195    14A      1.290519
      15A      1.322759

    Beta Occupied:

       1A    -11.268901     2A     -0.873065     3A     -0.619099
       4A     -0.384745

    Beta Virtual:

       5A      0.091142     6A      0.137973     7A      0.300130
       8A      0.346092     9A      0.722053    10A      0.797318
      11A      0.865087    12A      0.983999    13A      1.088032
      14A      1.309017    15A      1.322957

    Final Occupation by Irrep:
              A
    DOCC [     4 ]
    SOCC [     1 ]

  Energy converged.

  @DF-UHF Final Energy:   -39.36780324217378

   => Energetics <=

    Nuclear Repulsion Energy =              8.6431991021330390
    One-Electron Energy =                 -69.1967185091118608
    Two-Electron Energy =                  21.1857161648050401
    Total Energy =                        -39.3678032421737782

  UHF NO Occupations:
  HONO-2 :    3  A 1.9982522
  HONO-1 :    4  A 1.9806458
  HONO-0 :    5  A 1.0000000
  LUNO+0 :    6  A 0.0193542
  LUNO+1 :    7  A 0.0017478
  LUNO+2 :    8  A 0.0005971
  LUNO+3 :    9  A 0.0000002

Properties will be evaluated at   0.000000,   0.000000,   0.000000 Bohr

Properties computed using the SCF density matrix

  Nuclear Dipole Moment: (a.u.)
     X:     0.0000      Y:     0.0000      Z:     0.7488

  Electronic Dipole Moment: (a.u.)
     X:     0.0000      Y:    -0.0000      Z:    -1.1631

  Dipole Moment: (a.u.)
     X:     0.0000      Y:    -0.0000      Z:    -0.4143     Total:     0.4143

  Dipole Moment: (Debye)
     X:     0.0000      Y:    -0.0000      Z:    -1.0531     Total:     1.0531

*** tstop() called on adabbott at Thu Apr 12 13:56:25 2018
Module time:
	user time   =       0.18 seconds =       0.00 minutes
	system time =       0.21 seconds =       0.00 minutes
	total time  =          0 seconds =       0.00 minutes
Total time:
	user time   =       0.18 seconds =       0.00 minutes
	system time =       0.21 seconds =       0.00 minutes
	total time  =          0 seconds =       0.00 minutes
   => Loading Basis Set <=

    Name: (6-31G AUX)
    Role: JKFIT
    Keyword: DF_BASIS_SCF
    atoms 1   entry C          line   121 file /home/adabbott/Git/psi4/objdir/stage/usr/local/psi4/share/psi4/basis/cc-pvdz-jkfit.gbs
    atoms 2-4 entry H          line    51 file /home/adabbott/Git/psi4/objdir/stage/usr/local/psi4/share/psi4/basis/cc-pvdz-jkfit.gbs

   => Loading Basis Set <=

    Name: (6-31G AUX)
    Role: RIFIT
    Keyword: DF_BASIS_CC
    atoms 1   entry C          line   159 file /home/adabbott/Git/psi4/objdir/stage/usr/local/psi4/share/psi4/basis/cc-pvdz-ri.gbs
    atoms 2-4 entry H          line    19 file /home/adabbott/Git/psi4/objdir/stage/usr/local/psi4/share/psi4/basis/cc-pvdz-ri.gbs

*** tstart() called on adabbott
*** at Thu Apr 12 13:56:25 2018

  Options:
  ----------------------------------------------------------------------------
  ACTIVE                      => [  ]
  BASIS_RELATIVISTIC          => (empty)
  BENCH                       => 0
  CC_DIIS_MAX_VECS            => 6
  CC_DIIS_MIN_VECS            => 2
  CC_LAMBDA                   => FALSE
  CC_MAXITER                  => 50
  CC_TYPE                     => CONV
  CHOLESKY                    => FALSE
  CHOLESKY_TOLERANCE          => 0.0001
  CI_TYPE                     => CONV
  COMPUT_S2                   => FALSE
  CUBEPROP_BASIS_FUNCTIONS    => [  ]
  CUBEPROP_FILEPATH           => .
  CUBEPROP_ORBITALS           => [  ]
  CUBEPROP_TASKS              => [  ]
  CUBIC_BASIS_TOLERANCE       => 1e-12
  CUBIC_BLOCK_MAX_POINTS      => 1000
  CUBIC_GRID_OVERAGE          => [  ]
  CUBIC_GRID_SPACING          => [  ]
  CUTOFF                      => 8
  DEBUG                       => 0
  DERTYPE                     => FIRST           !
  DF_BASIS_CC                 => (empty)
  DIE_IF_NOT_CONVERGED        => TRUE
  DKH_ORDER                   => 2
  DOCC                        => [  ]
  DO_DIIS                     => TRUE
  DO_LEVEL_SHIFT              => TRUE
  DO_SCS                      => FALSE           !
  DO_SOS                      => FALSE           !
  E3_SCALE                    => 0.25
  EKT_IP                      => FALSE
  EXTERNAL_POTENTIAL_SYMMETRY => FALSE
  E_CONVERGENCE               => 1e-08           !
  FREEZE_CORE                 => FALSE
  FROZEN_DOCC                 => [  ]
  FROZEN_UOCC                 => [  ]
  HESS_TYPE                   => HF
  INTEGRAL_CUTOFF             => 9
  INTEGRAL_PACKAGE            => LIBINT
  LEVEL_SHIFT                 => 0.02
  LINEQ_SOLVER                => CDGESV
  LITERAL_CFOUR               => (empty)
  MAT_NUM_COLUMN_PRINT        => 5
  MAX_MOGRAD_CONVERGENCE      => 0.001
  MOLDEN_WITH_VIRTUAL         => TRUE
  MOLDEN_WRITE                => FALSE
  MO_DIIS_NUM_VECS            => 6
  MO_MAXITER                  => 50
  MO_STEP_MAX                 => 0.5
  MP2_AMP_TYPE                => DIRECT
  MP2_OS_SCALE                => 1.2
  MP2_SOS_SCALE               => 1.3
  MP2_SOS_SCALE2              => 1.2
  MP2_SS_SCALE                => 0.333333
  MP2_TYPE                    => DF
  MP_TYPE                     => CONV
  NAT_ORBS                    => FALSE
  NUM_FROZEN_DOCC             => 0
  NUM_FROZEN_UOCC             => 0
  OCC_ORBS_PRINT              => FALSE
  OEPROP                      => FALSE
  OO_SCALE                    => 0.01
  OPT_METHOD                  => QNR
  ORB_OPT                     => FALSE           !
  ORB_RESP_SOLVER             => PCG
  ORTH_TYPE                   => MGS
  PCG_BETA_TYPE               => FLETCHER_REEVES
  PCG_CONVERGENCE             => 1e-06
  PCG_MAXITER                 => 50
  PCM                         => FALSE
  PCM_CC_TYPE                 => PTE
  PCM_SCF_TYPE                => TOTAL
  PPL_TYPE                    => AUTO
  PRINT                       => 1
  PRINT_NOONS                 => 3
  PROPERTIES                  => [  ]
  PROPERTIES_ORIGIN           => [  ]
  PUREAM                      => TRUE
  QCHF                        => FALSE
  QC_MODULE                   => (empty)
  RAS1                        => [  ]
  RAS2                        => [  ]
  RAS3                        => [  ]
  RAS4                        => [  ]
  READ_SCF_3INDEX             => TRUE
  REGULARIZATION              => FALSE
  REG_PARAM                   => 0.4
  RELATIVISTIC                => NO
  RESTRICTED_DOCC             => [  ]
  RESTRICTED_UOCC             => [  ]
  RMS_MOGRAD_CONVERGENCE      => 1e-06
  R_CONVERGENCE               => 1e-05
  SCS_TYPE                    => SCS
  SOCC                        => [  ]
  SOS_TYPE                    => SOS
  TRIPLES_IABC_TYPE           => DISK
  UNITS                       => ANGSTROMS
  WFN                         => SCF
  WFN_TYPE                    => DF-OMP2         !
  WRITER_FILE_LABEL           => (empty)

 ==============================================================================
 ==============================================================================
 ==============================================================================

                       DF-MP2
              Program Written by Ugur Bozkaya
              Latest Revision April 17, 2016

 ==============================================================================
 ==============================================================================
 ==============================================================================

	MO Hessian type is changed to 'APPROX_DIAG'
	MO spaces...

	 FC   AOCC   BOCC  AVIR   BVIR   FV
	------------------------------------------
	  0     5     4    10     11     0
	Reading DF integrals from disk ...
	Number of basis functions in the DF-HF basis: 156
	Number of basis functions in the DF-CC basis:  98

	Available memory                      :    500.00 MB
	Minimum required memory for amplitudes:      0.06 MB

	Computing DF-MP2 energy using SCF MOs (Canonical DF-MP2)...
	=======================================================================
	Nuclear Repulsion Energy (a.u.)    :     8.64319910213304
	DF-HF Energy (a.u.)                :   -39.36780324217378
	REF Energy (a.u.)                  :   -39.36780324217378
	Alpha-Alpha Contribution (a.u.)    :    -0.00878698151291
	Alpha-Beta Contribution (a.u.)     :    -0.07709376578552
	Beta-Beta Contribution (a.u.)      :    -0.00424988643226
	Scaled_SS Correlation Energy (a.u.):    -0.00434562264839
	Scaled_OS Correlation Energy (a.u.):    -0.09251251894262
	DF-SCS-MP2 Total Energy (a.u.)     :   -39.46466138376478
	DF-SOS-MP2 Total Energy (a.u.)     :   -39.46802513769495
	DF-SCSN-MP2 Total Energy (a.u.)    :   -39.39074812975728
	DF-MP2 Correlation Energy (a.u.)   :    -0.09013063373069
	DF-MP2 Total Energy (a.u.)         :   -39.45793387590447
	=======================================================================

	Computing unrelaxed response density matrices...

	Forming independent-pairs...
	Number of alpha independent-pairs: 50
	Number of beta independent-pairs : 44
	Computing the generalized Fock matrix (GFM)...
	Computing the orbital gradient...
	Forming effective orbital gradient...
	Solving orbital Z-vector equations...

	            PCG Solver
	   ------------------------------
	Iter     RMS Z Vector        RMS Residual
	----    ---------------    ---------------
	  1         6.76e-02         3.93e-02
	  2         4.77e-02         5.24e-03
	  3         4.51e-03         1.15e-03
	  4         8.12e-04         3.09e-04
	  5         2.38e-04         6.81e-05
	  6         4.04e-05         1.51e-05
	  7         8.67e-06         1.67e-06
	  8         8.49e-07         2.50e-07

	Computing the relaxed PDMs and GFM...

*** tstop() called on adabbott at Thu Apr 12 13:56:25 2018
Module time:
	user time   =       0.13 seconds =       0.00 minutes
	system time =       0.59 seconds =       0.01 minutes
	total time  =          0 seconds =       0.00 minutes
Total time:
	user time   =       0.43 seconds =       0.01 minutes
	system time =       1.07 seconds =       0.02 minutes
	total time  =          0 seconds =       0.00 minutes

*** tstart() called on adabbott
*** at Thu Apr 12 13:56:25 2018

 ==============================================================================
 ==============================================================================
 ==============================================================================

                         DFGRAD
            A General Analytic Gradients Code
               for Density-Fitted Methods
                   by Ugur Bozkaya
              Latest Revision October 7, 2015

 ==============================================================================
 ==============================================================================
 ==============================================================================

	Analytic gradients computation is starting...
	Forming Gamma^tilde...
	Backtransforming OPDM, TPDM, and GFM to the AO basis...
	Computing analytic gradients...

  -Nuclear Gradient:
     Atom            X                  Y                   Z
    ------   -----------------  -----------------  -----------------
       1        0.000000000000     0.000000000000    -1.260128331342
       2        0.000000000000     0.000000000000    -0.495643370899
       3        0.000000000000    -1.561508108982     0.877885851121
       4       -0.000000000000     1.561508108982     0.877885851121

  -Kinetic Gradient:
     Atom            X                  Y                   Z
    ------   -----------------  -----------------  -----------------
       1       -0.000000000000    -0.000000000000    -0.416518177321
       2        0.000000000000    -0.000000000000    -0.083614141657
       3        0.000000000000    -0.389022444510     0.250066159489
       4        0.000000000000     0.389022444510     0.250066159489

  -Potential Gradient:
     Atom            X                  Y                   Z
    ------   -----------------  -----------------  -----------------
       1        0.000000000000     0.000000000004     2.830258007743
       2       -0.000000000000    -0.000000000000     1.885918816186
       3       -0.000000000000     3.632927335426    -2.358088411965
       4       -0.000000000000    -3.632927335429    -2.358088411965

  -Overlap Gradient:
     Atom            X                  Y                   Z
    ------   -----------------  -----------------  -----------------
       1       -0.000000000000    -0.000000000000    -0.187880881073
       2        0.000000000000     0.000000000000    -0.099724088835
       3        0.000000000000    -0.185601071653     0.143802484954
       4        0.000000000000     0.185601071654     0.143802484954

  -One-Electron Gradient:
     Atom            X                  Y                   Z
    ------   -----------------  -----------------  -----------------
       1        0.000000000000     0.000000000003     2.413739830422
       2       -0.000000000000    -0.000000000000     1.802304674529
       3       -0.000000000000     3.243904890916    -2.108022252475
       4       -0.000000000000    -3.243904890919    -2.108022252475

  -Two-Electron Gradient:
     Atom            X                  Y                   Z
    ------   -----------------  -----------------  -----------------
       1       -0.000000000000    -0.000000000003    -1.086034051234
       2        0.000000000000     0.000000000000    -1.133359435475
       3        0.000000000000    -1.575305955848     1.109696743355
       4        0.000000000000     1.575305955851     1.109696743355

  -Total Gradient:
     Atom            X                  Y                   Z
    ------   -----------------  -----------------  -----------------
       1        0.000000000000     0.000000000000    -0.120303433227
       2       -0.000000000000     0.000000000000     0.073577779319
       3       -0.000000000000    -0.078510245568     0.023362826954
       4       -0.000000000000     0.078510245567     0.023362826954

*** tstop() called on adabbott at Thu Apr 12 13:56:26 2018
Module time:
	user time   =       0.20 seconds =       0.00 minutes
	system time =       0.65 seconds =       0.01 minutes
	total time  =          1 seconds =       0.02 minutes
Total time:
	user time   =       0.63 seconds =       0.01 minutes
	system time =       1.72 seconds =       0.03 minutes
	total time  =          1 seconds =       0.02 minutes

*** Psi4 exiting successfully. Buy a developer a beer!
