                               Psi4 1.2a1.dev429

  ==> Input File <==

--------------------------------------------------------------------------
# density-fitted hartree fock energies and gradients with 6-31g
molecule h20 {
0 1
O 0.0000000000 0.0000000000 0.0000000000
H 0.0000000000 0.0000000000 1.1000000000
H 0.0000000000 1.1258330249 -0.6500000000
}

set basis 6-31g

gradient('hf')
--------------------------------------------------------------------------

    Molecular point group: cs
  Charge       = 0
  Multiplicity = 1
  Basis Set: 6-31G
    Blend: 6-31G
  Basis Set: (6-31G AUX)
    Blend: CC-PVDZ-JKFIT

    Orbital Energies (a.u.)
    -----------------------

    Doubly Occupied:

       1Ap   -20.587878     2Ap    -1.254573     3Ap    -0.613128
       4Ap    -0.494749     1App   -0.484485

  @DF-RHF Final Energy:   -75.89985467619759

   => Energetics <=

    Nuclear Repulsion Energy =              7.3593429841353366
    One-Electron Energy =                -119.6487698283892485
    Two-Electron Energy =                  36.3895721680563042
    Total Energy =                        -75.8998546761976058
    Molecular point group: cs

    Geometry (in Angstrom), charge = 0, multiplicity = 1:

       Center              X                  Y                   Z               Mass
    ------------   -----------------  -----------------  -----------------  -----------------
           O          0.062998730154     0.025180846486     0.000000000000    15.994914619560
           H          0.062998730154    -1.074819153514     0.000000000000     1.007825032070
           H         -1.062834294746     0.675180846486     0.000000000000     1.007825032070

  Basis Set: 6-31G
    Blend: 6-31G
  Basis Set: (6-31G AUX)
    Blend: CC-PVDZ-JKFIT

  -Total Gradient:
     Atom            X                  Y                   Z
    ------   -----------------  -----------------  -----------------
       1        0.085702277888     0.014907421715     0.000000000000
       2        0.022275741412    -0.099013170774     0.000000000000
       3       -0.107978019300     0.084105749059     0.000000000000

*** Psi4 exiting successfully. Buy a developer a beer!
