                               Psi4 1.2a1.dev429

  ==> Input File <==

--------------------------------------------------------------------------
# density-fitted hartree fock energies and gradients with 6-31g
molecule h2o {
0 1
O 0.0000000000 0.0000000000 0.0000000000
H 0.0000000000 0.0000000000 1.1000000000
H 0.0000000000 0.8426488874 -0.7070663707
}

set basis 6-31g

gradient('mp2')
--------------------------------------------------------------------------

    Molecular point group: c2v
  Charge       = 0
  Multiplicity = 1
  Basis Set: 6-31G
    Blend: 6-31G
  Basis Set: (6-31G AUX)
    Blend: CC-PVDZ-JKFIT

    Orbital Energies (a.u.)
    -----------------------

    Doubly Occupied:

       1A1   -20.560692     2A1    -1.268017     1B2    -0.661151
       3A1    -0.493608     1B1    -0.477618

  @DF-RHF Final Energy:   -75.93852045002848

   => Energetics <=

    Nuclear Repulsion Energy =              7.9625241463675955
    One-Electron Energy =                -120.8799165307651720
    Two-Electron Energy =                  36.9788719343690957
    Total Energy =                        -75.9385204500284772
  Basis Set: (6-31G AUX)
    Blend: CC-PVDZ-RI
    Molecular point group: c2v

    Geometry (in Angstrom), charge = 0, multiplicity = 1:

       Center              X                  Y                   Z               Mass
    ------------   -----------------  -----------------  -----------------  -----------------
           O          0.000000000000     0.000000000000    -0.052026996123    15.994914619560
           H          0.000000000000    -0.996938565754     0.412853091768     1.007825032070
           H         -0.000000000000     0.996938565754     0.412853091768     1.007825032070

  Basis Set: 6-31G
    Blend: 6-31G
  Basis Set: (6-31G AUX)
    Blend: CC-PVDZ-JKFIT
  Basis Set: (6-31G AUX)
    Blend: CC-PVDZ-JKFIT
	 Reference Energy          =     -75.9385204500284772 [Eh]
	 Singles Energy            =      -0.0000000000000000 [Eh]
	 Same-Spin Energy          =      -0.0328523775416378 [Eh]
	 Opposite-Spin Energy      =      -0.1065674713530148 [Eh]
	 Correlation Energy        =      -0.1394198488946526 [Eh]
	 Total Energy              =     -76.0779402989231244 [Eh]

	 ================> DF-SCS-MP2 Energies <==================
	-----------------------------------------------------------
	 SCS Same-Spin Scale       =       0.3333333333333333 [-]
	 SCS Opposite-Spin Scale   =       1.2000000000000000 [-]
	 SCS Same-Spin Energy      =      -0.0109507925138793 [Eh]
	 SCS Opposite-Spin Energy  =      -0.1278809656236178 [Eh]
	 SCS Correlation Energy    =      -0.1388317581374970 [Eh]
	 SCS Total Energy          =     -76.0773522081659763 [Eh]
	-----------------------------------------------------------

  -Total Gradient:
     Atom            X                  Y                   Z
    ------   -----------------  -----------------  -----------------
       1        0.000000000000    -0.000000000006    -0.016229493037
       2        0.000000000000    -0.090221492387     0.008114746518
       3       -0.000000000000     0.090221492393     0.008114746519

*** Psi4 exiting successfully. Buy a developer a beer!
