                               Psi4 1.2.1 release

  ==> Input File <==

--------------------------------------------------------------------------
# density fitted hartree fock
molecule h2o {
0 1
H 0.0000000000 0.0000000000 1.2000000000
H 0.0000000000 0.9469765208 -0.3922505182
O 0.0000000000 0.0000000000 0.0000000000
}

set basis 6-31g
energy('hf')

--------------------------------------------------------------------------

    Molecular point group: cs

    Geometry (in Angstrom), charge = 0, multiplicity = 1:

       Center              X                  Y                   Z               Mass
    ------------   -----------------  -----------------  -----------------  -----------------
         H            0.052990378659    -1.154800409554     0.000000000000     1.007825032070
         H           -0.893986142141     0.437450108646     0.000000000000     1.007825032070
         O            0.052990378659     0.045199590446     0.000000000000    15.994914619560

  Charge       = 0
  Multiplicity = 1
  Basis Set: 6-31G
    Blend: 6-31G
  Basis Set: (6-31G AUX)
    Blend: CC-PVDZ-JKFIT

    Orbital Energies [Eh]
    ---------------------

    Doubly Occupied:

       1Ap   -20.581661     2Ap    -1.286957     3Ap    -0.644505
       4Ap    -0.520497     1App   -0.491254

  @DF-RHF Final Energy:   -75.94111100641845

   => Energetics <=

    Nuclear Repulsion Energy =              7.9436561133662886
    One-Electron Energy =                -120.7197736863615489
    Two-Electron Energy =                  36.8350065665768156
    Total Energy =                        -75.9411110064184527

  Dipole Moment: [D]
     X:    -2.0484      Y:    -1.4482      Z:     0.0000     Total:     2.5086

*** Psi4 exiting successfully. Buy a developer a beer!
