                               Psi4 1.2a1.dev429

  ==> Input File <==

--------------------------------------------------------------------------
# density-fitted hartree fock energies and gradients with 6-31g
molecule h2o {
0 1
O 0.0000000000 0.0000000000 0.0000000000
H 0.0000000000 0.0000000000 1.3000000000
H 0.0000000000 0.8457233587 -0.3078181290
}

set basis 6-31g

gradient('mp2')
--------------------------------------------------------------------------

    Molecular point group: cs
  Charge       = 0
  Multiplicity = 1
  Basis Set: 6-31G
    Blend: 6-31G
  Basis Set: (6-31G AUX)
    Blend: CC-PVDZ-JKFIT

    Orbital Energies (a.u.)
    -----------------------

    Doubly Occupied:

       1Ap   -20.577671     2Ap    -1.317878     3Ap    -0.660076
       4Ap    -0.517359     1App   -0.495107

  @DF-RHF Final Energy:   -75.91787591670341

   => Energetics <=

    Nuclear Repulsion Energy =              8.2515605678758330
    One-Electron Energy =                -121.2026907553661914
    Two-Electron Energy =                  37.0332542707869479
    Total Energy =                        -75.9178759167034229
  Basis Set: (6-31G AUX)
    Blend: CC-PVDZ-RI
    Molecular point group: cs

    Geometry (in Angstrom), charge = 0, multiplicity = 1:

       Center              X                  Y                   Z               Mass
    ------------   -----------------  -----------------  -----------------  -----------------
           O          0.047324511256     0.055519954178     0.000000000000    15.994914619560
           H          0.047324511256    -1.244480045822     0.000000000000     1.007825032070
           H         -0.798398847444     0.363338083178     0.000000000000     1.007825032070

  Basis Set: 6-31G
    Blend: 6-31G
  Basis Set: (6-31G AUX)
    Blend: CC-PVDZ-JKFIT
  Basis Set: (6-31G AUX)
    Blend: CC-PVDZ-JKFIT
	 Reference Energy          =     -75.9178759167034087 [Eh]
	 Singles Energy            =      -0.0000000000000000 [Eh]
	 Same-Spin Energy          =      -0.0322260769212632 [Eh]
	 Opposite-Spin Energy      =      -0.1080548685954191 [Eh]
	 Correlation Energy        =      -0.1402809455166822 [Eh]
	 Total Energy              =     -76.0581568622200876 [Eh]

	 ================> DF-SCS-MP2 Energies <==================
	-----------------------------------------------------------
	 SCS Same-Spin Scale       =       0.3333333333333333 [-]
	 SCS Opposite-Spin Scale   =       1.2000000000000000 [-]
	 SCS Same-Spin Energy      =      -0.0107420256404211 [Eh]
	 SCS Opposite-Spin Energy  =      -0.1296658423145029 [Eh]
	 SCS Correlation Energy    =      -0.1404078679549239 [Eh]
	 SCS Total Energy          =     -76.0582837846583288 [Eh]
	-----------------------------------------------------------

  -Total Gradient:
     Atom            X                  Y                   Z
    ------   -----------------  -----------------  -----------------
       1       -0.108194828331     0.136114845090    -0.000000000000
       2        0.008699552174    -0.113274007600    -0.000000000000
       3        0.099495276157    -0.022840837490     0.000000000000

*** Psi4 exiting successfully. Buy a developer a beer!
