                               Psi4 1.2a1.dev429

  ==> Input File <==

--------------------------------------------------------------------------
# density-fitted hartree fock energies and gradients with 6-31g
molecule h20 {
0 1
O 0.0000000000 0.0000000000 0.0000000000
H 0.0000000000 0.0000000000 0.8000000000
H 0.0000000000 0.7660444431 -0.6427876097
}

set basis 6-31g

gradient('hf')
--------------------------------------------------------------------------

    Molecular point group: cs
  Charge       = 0
  Multiplicity = 1
  Basis Set: 6-31G
    Blend: 6-31G
  Basis Set: (6-31G AUX)
    Blend: CC-PVDZ-JKFIT

    Orbital Energies (a.u.)
    -----------------------

    Doubly Occupied:

       1Ap   -20.528976     2Ap    -1.371928     3Ap    -0.783269
       4Ap    -0.521699     1App   -0.493878

  @DF-RHF Final Energy:   -75.94222752572506

   => Energetics <=

    Nuclear Repulsion Energy =              9.8491343720566444
    One-Electron Energy =                -124.1832244206844109
    Two-Electron Energy =                  38.3918625229027199
    Total Energy =                        -75.9422275257250590
    Molecular point group: cs

    Geometry (in Angstrom), charge = 0, multiplicity = 1:

       Center              X                  Y                   Z               Mass
    ------------   -----------------  -----------------  -----------------  -----------------
           O          0.042865883385     0.008797202369     0.000000000000    15.994914619560
           H          0.042865883385    -0.791202797631     0.000000000000     1.007825032070
           H         -0.723178559715     0.651584812069     0.000000000000     1.007825032070

  Basis Set: 6-31G
    Blend: 6-31G
  Basis Set: (6-31G AUX)
    Blend: CC-PVDZ-JKFIT

  -Total Gradient:
     Atom            X                  Y                   Z
    ------   -----------------  -----------------  -----------------
       1        0.011182202047    -0.340886345001     0.000000000000
       2        0.025150272117     0.284134700406     0.000000000000
       3       -0.036332474165     0.056751644594     0.000000000000

*** Psi4 exiting successfully. Buy a developer a beer!
