                               Psi4 1.2a1.dev429

  ==> Input File <==

--------------------------------------------------------------------------
# density-fitted hartree fock energies and gradients with 6-31g
molecule h20 {
0 1
O 0.0000000000 0.0000000000 0.0000000000
H 0.0000000000 0.0000000000 0.8000000000
H 0.0000000000 1.0832885283 -0.1910129954
}

set basis 6-31g

gradient('hf')
--------------------------------------------------------------------------

    Molecular point group: cs
  Charge       = 0
  Multiplicity = 1
  Basis Set: 6-31G
    Blend: 6-31G
  Basis Set: (6-31G AUX)
    Blend: CC-PVDZ-JKFIT

    Orbital Energies (a.u.)
    -----------------------

    Doubly Occupied:

       1Ap   -20.560768     2Ap    -1.390337     3Ap    -0.711255
       4Ap    -0.564273     1App   -0.506075

  @DF-RHF Final Energy:   -75.92960465214517

   => Energetics <=

    Nuclear Repulsion Energy =              9.5007586377680546
    One-Electron Energy =                -123.3953088507183793
    Two-Electron Energy =                  37.9649455608051483
    Total Energy =                        -75.9296046521451728
    Molecular point group: cs

    Geometry (in Angstrom), charge = 0, multiplicity = 1:

       Center              X                  Y                   Z               Mass
    ------------   -----------------  -----------------  -----------------  -----------------
           O          0.060618049181     0.034077351722     0.000000000000    15.994914619560
           H          0.060618049181    -0.765922648278     0.000000000000     1.007825032070
           H         -1.022670479119     0.225090347122     0.000000000000     1.007825032070

  Basis Set: 6-31G
    Blend: 6-31G
  Basis Set: (6-31G AUX)
    Blend: CC-PVDZ-JKFIT

  -Total Gradient:
     Atom            X                  Y                   Z
    ------   -----------------  -----------------  -----------------
       1        0.120610402322    -0.301547023214     0.000000000000
       2       -0.023319429982     0.301613215018     0.000000000000
       3       -0.097290972340    -0.000066191804     0.000000000000

*** Psi4 exiting successfully. Buy a developer a beer!
