                               Psi4 1.2.1 release

  ==> Input File <==

--------------------------------------------------------------------------
# density fitted hartree fock
molecule h2o {
0 1
H 0.0000000000 0.0000000000 0.9375000000
H 0.0000000000 0.7361215932 -0.4250000000
O 0.0000000000 0.0000000000 0.0000000000
}

set basis 6-31g
energy('hf')

--------------------------------------------------------------------------

    Molecular point group: cs

    Geometry (in Angstrom), charge = 0, multiplicity = 1:

       Center              X                  Y                   Z               Mass
    ------------   -----------------  -----------------  -----------------  -----------------
         H            0.041191477408    -0.908821813724     0.000000000000     1.007825032070
         H           -0.694930115792     0.453678186276     0.000000000000     1.007825032070
         O            0.041191477408     0.028678186276     0.000000000000    15.994914619560

  Charge       = 0
  Multiplicity = 1
  Basis Set: 6-31G
    Blend: 6-31G
  Basis Set: (6-31G AUX)
    Blend: CC-PVDZ-JKFIT

    Orbital Energies [Eh]
    ---------------------

    Doubly Occupied:

       1Ap   -20.536596     2Ap    -1.377067     3Ap    -0.775316
       4Ap    -0.540613     1App   -0.498869

  @DF-RHF Final Energy:   -75.97116788817081

   => Energetics <=

    Nuclear Repulsion Energy =              9.8378416848435215
    One-Electron Energy =                -124.1610972463833207
    Two-Electron Energy =                  38.3520876733689846
    Total Energy =                        -75.9711678881708110

  Dipole Moment: [D]
     X:    -1.9436      Y:    -1.2315      Z:     0.0000     Total:     2.3009

*** Psi4 exiting successfully. Buy a developer a beer!
