                               Psi4 1.2a1.dev429

  ==> Input File <==

--------------------------------------------------------------------------
# density-fitted hartree fock energies and gradients with 6-31g
molecule h20 {
0 1
O 0.0000000000 0.0000000000 0.0000000000
O 0.0000000000 0.0000000000 0.9696969697
}

set basis 6-31g

gradient('hf')
--------------------------------------------------------------------------

    Molecular point group: d2h
  Charge       = 0
  Multiplicity = 1
  Basis Set: 6-31G
    Blend: 6-31G
  Basis Set: (6-31G AUX)
    Blend: CC-PVDZ-JKFIT

    Orbital Energies (a.u.)
    -----------------------

    Doubly Occupied:

       1Ag   -20.721230     1B1u  -20.718003     2Ag    -1.986110
       2B1u   -1.011669     1B2u   -0.902372     1B3u   -0.801780
       3Ag    -0.796471     1B3g   -0.366229

  @DF-RHF Final Energy:  -149.30855766582221

   => Energetics <=

    Nuclear Repulsion Energy =             34.9256957668308488
    One-Electron Energy =                -273.8607780423979534
    Two-Electron Energy =                  89.6265246097448909
    Total Energy =                       -149.3085576658222067
    Molecular point group: d2h

    Geometry (in Angstrom), charge = 0, multiplicity = 1:

       Center              X                  Y                   Z               Mass
    ------------   -----------------  -----------------  -----------------  -----------------
           O          0.000000000000     0.000000000000    -0.484848484850    15.994914619560
           O          0.000000000000     0.000000000000     0.484848484850    15.994914619560

  Basis Set: 6-31G
    Blend: 6-31G
  Basis Set: (6-31G AUX)
    Blend: CC-PVDZ-JKFIT

  -Total Gradient:
     Atom            X                  Y                   Z
    ------   -----------------  -----------------  -----------------
       1        0.000000000000    -0.000000000000     0.958614502071
       2        0.000000000000     0.000000000000    -0.958614502071

*** Psi4 exiting successfully. Buy a developer a beer!
