                               Psi4 1.3.1 release

  ==> Input File <==

--------------------------------------------------------------------------
# density fitted hartree fock
molecule h2o {
0 1
H 0.0000000000 0.0000000000 1.1125000000
H 0.0000000000 0.9294795575 -0.1223683052
O 0.0000000000 0.0000000000 0.0000000000
}

set basis 6-31g
energy('hf')

--------------------------------------------------------------------------

    Molecular point group: cs

    Geometry (in Angstrom), charge = 0, multiplicity = 1:

       Center              X                  Y                   Z               Mass
    ------------   -----------------  -----------------  -----------------  -----------------
         H            0.052011293451    -1.057094768419     0.000000000000     1.007825032230
         H           -0.877468264049     0.177773536781     0.000000000000     1.007825032230
         O            0.052011293451     0.055405231581     0.000000000000    15.994914619570

  Charge       = 0
  Multiplicity = 1
  Basis Set: 6-31G
    Blend: 6-31G
  Basis Set: (6-31G AUX)
    Blend: CC-PVDZ-JKFIT

    Orbital Energies [Eh]
    ---------------------

    Doubly Occupied:

       1Ap   -20.578447     2Ap    -1.337440     3Ap    -0.666807
       4Ap    -0.560603     1App   -0.502731

  @DF-RHF Final Energy:   -75.96261081916106

   => Energetics <=

    Nuclear Repulsion Energy =              8.6633447540702875
    One-Electron Energy =                -121.9598475985012271
    Two-Electron Energy =                  37.3338920252698685
    Total Energy =                        -75.9626108191610570

  Dipole Moment: [D]
     X:    -2.0614      Y:    -1.8279      Z:     0.0000     Total:     2.7552

*** Psi4 exiting successfully. Buy a developer a beer!
