                               Psi4 1.3.1 release

  ==> Input File <==

--------------------------------------------------------------------------
# density fitted MP2
molecule h2o {
0 1
H 0.0000000000 0.0000000000 1.2000000000
H 0.0000000000 1.0162309829 -0.1337893470
O 0.0000000000 0.0000000000 0.0000000000
}

set basis 6-31g
energy('mp2')

--------------------------------------------------------------------------

    Molecular point group: cs

    Geometry (in Angstrom), charge = 0, multiplicity = 1:

       Center              X                  Y                   Z               Mass
    ------------   -----------------  -----------------  -----------------  -----------------
         H            0.056865680841    -1.140337584936     0.000000000000     1.007825032230
         H           -0.959365302059     0.193451762064     0.000000000000     1.007825032230
         O            0.056865680841     0.059662415064     0.000000000000    15.994914619570

  Charge       = 0
  Multiplicity = 1
  Basis Set: 6-31G
    Blend: 6-31G
  Basis Set: (6-31G AUX)
    Blend: CC-PVDZ-JKFIT

    Orbital Energies [Eh]
    ---------------------

    Doubly Occupied:

       1Ap   -20.595301     2Ap    -1.300879     3Ap    -0.629433
       4Ap    -0.545516     1App   -0.500823

  @DF-RHF Final Energy:   -75.94135034364157

   => Energetics <=

    Nuclear Repulsion Energy =              7.9735957865666585
    One-Electron Energy =                -120.6859870696083590
    Two-Electron Energy =                  36.7710409394001232
    Total Energy =                        -75.9413503436415738

  Dipole Moment: [D]
     X:    -2.0843      Y:    -1.8062      Z:     0.0000     Total:     2.7580

  Basis Set: (6-31G AUX)
    Blend: CC-PVDZ-RI
	 Reference Energy          =     -75.9413503436415738 [Eh]
	 Singles Energy            =      -0.0000000000000000 [Eh]
	 Same-Spin Energy          =      -0.0332382525145219 [Eh]
	 Opposite-Spin Energy      =      -0.1107055909134642 [Eh]
	 Correlation Energy        =      -0.1439438434279862 [Eh]
	 Total Energy              =     -76.0852941870695645 [Eh]

	 ================> DF-SCS-MP2 Energies <==================
	-----------------------------------------------------------
	 SCS Same-Spin Scale       =       0.3333333333333333 [-]
	 SCS Opposite-Spin Scale   =       1.2000000000000000 [-]
	 SCS Same-Spin Energy      =      -0.0110794175048406 [Eh]
	 SCS Opposite-Spin Energy  =      -0.1328467090961571 [Eh]
	 SCS Correlation Energy    =      -0.1439261266009977 [Eh]
	 SCS Total Energy          =     -76.0852764702425759 [Eh]
	-----------------------------------------------------------

*** Psi4 exiting successfully. Buy a developer a beer!
