                               Psi4 1.2a1.dev429

  ==> Input File <==

--------------------------------------------------------------------------
# density-fitted hartree fock energies and gradients with 6-31g
molecule h2o {
0 1
O 0.0000000000 0.0000000000 0.0000000000
H 0.0000000000 0.0000000000 1.3000000000
H 0.0000000000 1.3787308542 -0.2431074487
}

set basis 6-31g

gradient('mp2')
--------------------------------------------------------------------------

    Molecular point group: cs
  Charge       = 0
  Multiplicity = 1
  Basis Set: 6-31G
    Blend: 6-31G
  Basis Set: (6-31G AUX)
    Blend: CC-PVDZ-JKFIT

    Orbital Energies (a.u.)
    -----------------------

    Doubly Occupied:

       1Ap   -20.632180     2Ap    -1.237499     3Ap    -0.546859
       4Ap    -0.504475     1App   -0.500290

  @DF-RHF Final Energy:   -75.83926533615133

   => Energetics <=

    Nuclear Repulsion Energy =              6.5360702391605026
    One-Electron Energy =                -117.9080656358505195
    Two-Electron Energy =                  35.5327300605386753
    Total Energy =                        -75.8392653361513283
  Basis Set: (6-31G AUX)
    Blend: CC-PVDZ-RI
    Molecular point group: cs

    Geometry (in Angstrom), charge = 0, multiplicity = 1:

       Center              X                  Y                   Z               Mass
    ------------   -----------------  -----------------  -----------------  -----------------
           O          0.077150244412     0.059140997971     0.000000000000    15.994914619560
           H          0.077150244412    -1.240859002029     0.000000000000     1.007825032070
           H         -1.301580609788     0.302248446671     0.000000000000     1.007825032070

  Basis Set: 6-31G
    Blend: 6-31G
  Basis Set: (6-31G AUX)
    Blend: CC-PVDZ-JKFIT
  Basis Set: (6-31G AUX)
    Blend: CC-PVDZ-JKFIT
	 Reference Energy          =     -75.8392653361513283 [Eh]
	 Singles Energy            =      -0.0000000000000000 [Eh]
	 Same-Spin Energy          =      -0.0378948984688244 [Eh]
	 Opposite-Spin Energy      =      -0.1305910971659105 [Eh]
	 Correlation Energy        =      -0.1684859956347349 [Eh]
	 Total Energy              =     -76.0077513317860678 [Eh]

	 ================> DF-SCS-MP2 Energies <==================
	-----------------------------------------------------------
	 SCS Same-Spin Scale       =       0.3333333333333333 [-]
	 SCS Opposite-Spin Scale   =       1.2000000000000000 [-]
	 SCS Same-Spin Energy      =      -0.0126316328229415 [Eh]
	 SCS Opposite-Spin Energy  =      -0.1567093165990926 [Eh]
	 SCS Correlation Energy    =      -0.1693409494220341 [Eh]
	 SCS Total Energy          =     -76.0086062855733644 [Eh]
	-----------------------------------------------------------

  -Total Gradient:
     Atom            X                  Y                   Z
    ------   -----------------  -----------------  -----------------
       1        0.089812430516     0.073405554533     0.000000000000
       2        0.007277742514    -0.097387316711     0.000000000000
       3       -0.097090173030     0.023981762178    -0.000000000000

*** Psi4 exiting successfully. Buy a developer a beer!
