                               Psi4 1.2.1 release

  ==> Input File <==

--------------------------------------------------------------------------
# density fitted hartree fock
molecule h2o {
0 1
H 0.0000000000 0.0000000000 1.2000000000
H 0.0000000000 0.8876760389 -0.5125000000
O 0.0000000000 0.0000000000 0.0000000000
}

set basis 6-31g
energy('hf')

--------------------------------------------------------------------------

    Molecular point group: cs

    Geometry (in Angstrom), charge = 0, multiplicity = 1:

       Center              X                  Y                   Z               Mass
    ------------   -----------------  -----------------  -----------------  -----------------
         H            0.049672075700    -1.161529262313     0.000000000000     1.007825032070
         H           -0.838003963200     0.550970737687     0.000000000000     1.007825032070
         O            0.049672075700     0.038470737687     0.000000000000    15.994914619560

  Charge       = 0
  Multiplicity = 1
  Basis Set: 6-31G
    Blend: 6-31G
  Basis Set: (6-31G AUX)
    Blend: CC-PVDZ-JKFIT

    Orbital Energies [Eh]
    ---------------------

    Doubly Occupied:

       1Ap   -20.573584     2Ap    -1.279601     3Ap    -0.650536
       4Ap    -0.507618     1App   -0.485709

  @DF-RHF Final Energy:   -75.93690805202002

   => Energetics <=

    Nuclear Repulsion Energy =              7.9323541927794992
    One-Electron Energy =                -120.7444150551505828
    Two-Electron Energy =                  36.8751528103510537
    Total Energy =                        -75.9369080520200299

  Dipole Moment: [D]
     X:    -1.9885      Y:    -1.2768      Z:     0.0000     Total:     2.3631

*** Psi4 exiting successfully. Buy a developer a beer!
