                               Psi4 1.2a1.dev429

  ==> Input File <==

--------------------------------------------------------------------------
# density-fitted hartree fock energies and gradients with 6-31g
molecule h20 {
0 1
O 0.0000000000 0.0000000000 0.0000000000
H 0.0000000000 0.0000000000 0.9000000000
H 0.0000000000 0.7000000000 -1.2124355653
}

set basis 6-31g

gradient('hf')
--------------------------------------------------------------------------

    Molecular point group: cs
  Charge       = 0
  Multiplicity = 1
  Basis Set: 6-31G
    Blend: 6-31G
  Basis Set: (6-31G AUX)
    Blend: CC-PVDZ-JKFIT

    Orbital Energies (a.u.)
    -----------------------

    Doubly Occupied:

       1Ap   -20.527687     2Ap    -1.266118     3Ap    -0.648443
       1App   -0.455879     4Ap    -0.449222

  @DF-RHF Final Energy:   -75.85134913429188

   => Energetics <=

    Nuclear Repulsion Energy =              7.9654573852239841
    One-Electron Energy =                -120.9389162813397149
    Two-Electron Energy =                  37.1221097618238502
    Total Energy =                        -75.8513491342918797
    Molecular point group: cs

    Geometry (in Angstrom), charge = 0, multiplicity = 1:

       Center              X                  Y                   Z               Mass
    ------------   -----------------  -----------------  -----------------  -----------------
           O          0.039170205645    -0.017483093348     0.000000000000    15.994914619560
           H          0.039170205645    -0.917483093348     0.000000000000     1.007825032070
           H         -0.660829794355     1.194952471952     0.000000000000     1.007825032070

  Basis Set: 6-31G
    Blend: 6-31G
  Basis Set: (6-31G AUX)
    Blend: CC-PVDZ-JKFIT

  -Total Gradient:
     Atom            X                  Y                   Z
    ------   -----------------  -----------------  -----------------
       1        0.004783885116    -0.210019786141     0.000000000000
       2        0.044643645422     0.067009818700     0.000000000000
       3       -0.049427530538     0.143009967441     0.000000000000

*** Psi4 exiting successfully. Buy a developer a beer!
