                               Psi4 1.2a1.dev429

  ==> Input File <==

--------------------------------------------------------------------------
# density-fitted hartree fock energies and gradients with 6-31g
molecule h2o {
0 1
O 0.0000000000 0.0000000000 0.0000000000
H 0.0000000000 0.0000000000 0.8000000000
H 0.0000000000 0.2604722665 -1.4772116295
}

set basis 6-31g

gradient('mp2')
--------------------------------------------------------------------------

    Molecular point group: cs
  Charge       = 0
  Multiplicity = 1
  Basis Set: 6-31G
    Blend: 6-31G
  Basis Set: (6-31G AUX)
    Blend: CC-PVDZ-JKFIT

    Orbital Energies (a.u.)
    -----------------------

    Doubly Occupied:

       1Ap   -20.482788     2Ap    -1.273437     3Ap    -0.639005
       1App   -0.430644     4Ap    -0.427108

  @DF-RHF Final Energy:   -75.76845741073248

   => Energetics <=

    Nuclear Repulsion Energy =              8.3449246059738673
    One-Electron Energy =                -121.7207992528011857
    Two-Electron Energy =                  37.6074172360948324
    Total Energy =                        -75.7684574107324806
  Basis Set: (6-31G AUX)
    Blend: CC-PVDZ-RI
    Molecular point group: cs

    Geometry (in Angstrom), charge = 0, multiplicity = 1:

       Center              X                  Y                   Z               Mass
    ------------   -----------------  -----------------  -----------------  -----------------
           O          0.014575360348    -0.037895026847     0.000000000000    15.994914619560
           H          0.014575360348    -0.837895026847     0.000000000000     1.007825032070
           H         -0.245896906152     1.439316602653     0.000000000000     1.007825032070

  Basis Set: 6-31G
    Blend: 6-31G
  Basis Set: (6-31G AUX)
    Blend: CC-PVDZ-JKFIT
  Basis Set: (6-31G AUX)
    Blend: CC-PVDZ-JKFIT
	 Reference Energy          =     -75.7684574107324806 [Eh]
	 Singles Energy            =      -0.0000000000000000 [Eh]
	 Same-Spin Energy          =      -0.0327100181731972 [Eh]
	 Opposite-Spin Energy      =      -0.1044054978245513 [Eh]
	 Correlation Energy        =      -0.1371155159977485 [Eh]
	 Total Energy              =     -75.9055729267302297 [Eh]

	 ================> DF-SCS-MP2 Energies <==================
	-----------------------------------------------------------
	 SCS Same-Spin Scale       =       0.3333333333333333 [-]
	 SCS Opposite-Spin Scale   =       1.2000000000000000 [-]
	 SCS Same-Spin Energy      =      -0.0109033393910657 [Eh]
	 SCS Opposite-Spin Energy  =      -0.1252865973894615 [Eh]
	 SCS Correlation Energy    =      -0.1361899367805273 [Eh]
	 SCS Total Energy          =     -75.9046473475130057 [Eh]
	-----------------------------------------------------------

  -Total Gradient:
     Atom            X                  Y                   Z
    ------   -----------------  -----------------  -----------------
       1       -0.032903126842    -0.450030778526     0.000000000000
       2        0.037320841742     0.310351518299    -0.000000000000
       3       -0.004417714901     0.139679260227    -0.000000000000

*** Psi4 exiting successfully. Buy a developer a beer!
