                               Psi4 1.2a1.dev429

  ==> Input File <==

--------------------------------------------------------------------------
# density-fitted hartree fock energies and gradients with 6-31g
molecule h20 {
0 1
O 0.0000000000 0.0000000000 0.0000000000
H 0.0000000000 0.0000000000 1.2000000000
H 0.0000000000 1.2000000000 0.0000000000
}

set basis 6-31g

gradient('hf')
--------------------------------------------------------------------------

    Molecular point group: c2v
  Charge       = 0
  Multiplicity = 1
  Basis Set: 6-31G
    Blend: 6-31G
  Basis Set: (6-31G AUX)
    Blend: CC-PVDZ-JKFIT

    Orbital Energies (a.u.)
    -----------------------

    Doubly Occupied:

       1A1   -20.617554     2A1    -1.274889     1B2    -0.581568
       3A1    -0.548358     1B1    -0.504230

  @DF-RHF Final Energy:   -75.90714354660093

   => Energetics <=

    Nuclear Repulsion Energy =              7.3675167750694648
    One-Electron Energy =                -119.4961222037532025
    Two-Electron Energy =                  36.2214618820828065
    Total Energy =                        -75.9071435466009348
    Molecular point group: c2v

    Geometry (in Angstrom), charge = 0, multiplicity = 1:

       Center              X                  Y                   Z               Mass
    ------------   -----------------  -----------------  -----------------  -----------------
           O          0.000000000000     0.000000000000    -0.094962918968    15.994914619560
           H          0.000000000000    -0.848528137424     0.753565218456     1.007825032070
           H         -0.000000000000     0.848528137424     0.753565218456     1.007825032070

  Basis Set: 6-31G
    Blend: 6-31G
  Basis Set: (6-31G AUX)
    Blend: CC-PVDZ-JKFIT

  -Total Gradient:
     Atom            X                  Y                   Z
    ------   -----------------  -----------------  -----------------
       1        0.000000000000     0.000000000000    -0.183693462174
       2        0.000000000000    -0.069408695480     0.091846731087
       3       -0.000000000000     0.069408695480     0.091846731087

*** Psi4 exiting successfully. Buy a developer a beer!
