                               Psi4 1.2a1.dev429

  ==> Input File <==

--------------------------------------------------------------------------
# density-fitted hartree fock energies and gradients with 6-31g
molecule h20 {
0 1
O 0.0000000000 0.0000000000 0.0000000000
H 0.0000000000 0.0000000000 1.2000000000
H 0.0000000000 0.6427876097 -0.7660444431
}

set basis 6-31g

gradient('hf')
--------------------------------------------------------------------------

    Molecular point group: cs
  Charge       = 0
  Multiplicity = 1
  Basis Set: 6-31G
    Blend: 6-31G
  Basis Set: (6-31G AUX)
    Blend: CC-PVDZ-JKFIT

    Orbital Energies (a.u.)
    -----------------------

    Doubly Occupied:

       1Ap   -20.545679     2Ap    -1.263871     3Ap    -0.667096
       4Ap    -0.475776     1App   -0.468811

  @DF-RHF Final Energy:   -75.91956576835491

   => Energetics <=

    Nuclear Repulsion Energy =              8.0170978195038032
    One-Electron Energy =                -121.0308618212021656
    Two-Electron Energy =                  37.0941982333434339
    Total Energy =                        -75.9195657683549285
    Molecular point group: cs

    Geometry (in Angstrom), charge = 0, multiplicity = 1:

       Center              X                  Y                   Z               Mass
    ------------   -----------------  -----------------  -----------------  -----------------
           O          0.035968746940     0.024283040578     0.000000000000    15.994914619560
           H          0.035968746940    -1.175716959422     0.000000000000     1.007825032070
           H         -0.606818862760     0.790327483678     0.000000000000     1.007825032070

  Basis Set: 6-31G
    Blend: 6-31G
  Basis Set: (6-31G AUX)
    Blend: CC-PVDZ-JKFIT

  -Total Gradient:
     Atom            X                  Y                   Z
    ------   -----------------  -----------------  -----------------
       1       -0.024380895478     0.074739838538     0.000000000000
       2        0.030253735339    -0.138218565638     0.000000000000
       3       -0.005872839861     0.063478727101     0.000000000000

*** Psi4 exiting successfully. Buy a developer a beer!
