                               Psi4 1.2a1.dev429

  ==> Input File <==

--------------------------------------------------------------------------
# density-fitted hartree fock energies and gradients with 6-31g
molecule h20 {
0 1
O 0.0000000000 0.0000000000 0.0000000000
O 0.0000000000 0.0000000000 1.2525252525
}

set basis 6-31g

gradient('hf')
--------------------------------------------------------------------------

    Molecular point group: d2h
  Charge       = 0
  Multiplicity = 1
  Basis Set: 6-31G
    Blend: 6-31G
  Basis Set: (6-31G AUX)
    Blend: CC-PVDZ-JKFIT

    Orbital Energies (a.u.)
    -----------------------

    Doubly Occupied:

       1Ag   -20.765290     1B1u  -20.764580     2Ag    -1.652900
       2B1u   -1.121423     1B2u   -0.767974     3Ag    -0.714787
       1B3u   -0.637584     1B3g   -0.503539

  @DF-RHF Final Energy:  -149.45647322521401

   => Energetics <=

    Nuclear Repulsion Energy =             27.0392483362406253
    One-Electron Energy =                -259.1352896924814786
    Two-Electron Energy =                  82.6395681310268344
    Total Energy =                       -149.4564732252140118
    Molecular point group: d2h

    Geometry (in Angstrom), charge = 0, multiplicity = 1:

       Center              X                  Y                   Z               Mass
    ------------   -----------------  -----------------  -----------------  -----------------
           O          0.000000000000     0.000000000000    -0.626262626250    15.994914619560
           O          0.000000000000     0.000000000000     0.626262626250    15.994914619560

  Basis Set: 6-31G
    Blend: 6-31G
  Basis Set: (6-31G AUX)
    Blend: CC-PVDZ-JKFIT

  -Total Gradient:
     Atom            X                  Y                   Z
    ------   -----------------  -----------------  -----------------
       1        0.000000000000     0.000000000000    -0.085087422470
       2       -0.000000000000     0.000000000000     0.085087422470

*** Psi4 exiting successfully. Buy a developer a beer!
