                               Psi4 1.2a1.dev429

  ==> Input File <==

--------------------------------------------------------------------------
# density-fitted hartree fock energies and gradients with 6-31g
molecule o2 {
0 3
O 0.0000000000 0.0000000000 0.0000000000
O 0.0000000000 0.0000000000 1.2525252525
}

set basis 6-31g
set reference rohf

gradient('scf')
--------------------------------------------------------------------------

    Molecular point group: d2h
  Charge       = 0
  Multiplicity = 3
  Basis Set: 6-31G
    Blend: 6-31G
  Basis Set: (6-31G AUX)
    Blend: CC-PVDZ-JKFIT

    Orbital Energies (a.u.)
    -----------------------

    Doubly Occupied:

       1Ag   -20.756381     1B1u  -20.755679     2Ag    -1.648272
       2B1u   -1.117508     3Ag    -0.710712     1B2u   -0.698260
       1B3u   -0.698260

    Singly Occupied:

       1B2g   -0.246450     1B3g   -0.246450

  @DF-ROHF Final Energy:  -149.52227432328453

   => Energetics <=

    Nuclear Repulsion Energy =             27.0392483362406253
    One-Electron Energy =                -259.2174977082217993
    Two-Electron Energy =                  82.6559750486966180
    Total Energy =                       -149.5222743232845346
    Molecular point group: d2h

    Geometry (in Angstrom), charge = 0, multiplicity = 3:

       Center              X                  Y                   Z               Mass
    ------------   -----------------  -----------------  -----------------  -----------------
           O          0.000000000000     0.000000000000    -0.626262626250    15.994914619560
           O          0.000000000000     0.000000000000     0.626262626250    15.994914619560

  Basis Set: 6-31G
    Blend: 6-31G
  Basis Set: (6-31G AUX)
    Blend: CC-PVDZ-JKFIT

  -Total Gradient:
     Atom            X                  Y                   Z
    ------   -----------------  -----------------  -----------------
       1        0.000000000000     0.000000000000    -0.093272391923
       2       -0.000000000000    -0.000000000000     0.093272391923

*** Psi4 exiting successfully. Buy a developer a beer!
