                               Psi4 1.2a1.dev429

  ==> Input File <==

--------------------------------------------------------------------------
# density-fitted hartree fock energies and gradients with 6-31g
molecule h2o {
0 1
O 0.0000000000 0.0000000000 0.0000000000
H 0.0000000000 0.0000000000 1.4000000000
H 0.0000000000 0.9848077530 -0.1736481777
}

set basis 6-31g

gradient('mp2')
--------------------------------------------------------------------------

    Molecular point group: cs
  Charge       = 0
  Multiplicity = 1
  Basis Set: 6-31G
    Blend: 6-31G
  Basis Set: (6-31G AUX)
    Blend: CC-PVDZ-JKFIT

    Orbital Energies (a.u.)
    -----------------------

    Doubly Occupied:

       1Ap   -20.604316     2Ap    -1.288905     3Ap    -0.619592
       4Ap    -0.511027     1App   -0.500396

  @DF-RHF Final Energy:   -75.89599440246127

   => Energetics <=

    Nuclear Repulsion Energy =              7.5423432789420772
    One-Electron Energy =                -119.8282022042491803
    Two-Electron Energy =                  36.3898645228458264
    Total Energy =                        -75.8959944024612838
  Basis Set: (6-31G AUX)
    Blend: CC-PVDZ-RI
    Molecular point group: cs

    Geometry (in Angstrom), charge = 0, multiplicity = 1:

       Center              X                  Y                   Z               Mass
    ------------   -----------------  -----------------  -----------------  -----------------
           O          0.055107317437     0.068623504390     0.000000000000    15.994914619560
           H          0.055107317437    -1.331376495610     0.000000000000     1.007825032070
           H         -0.929700435563     0.242271682090     0.000000000000     1.007825032070

  Basis Set: 6-31G
    Blend: 6-31G
  Basis Set: (6-31G AUX)
    Blend: CC-PVDZ-JKFIT
  Basis Set: (6-31G AUX)
    Blend: CC-PVDZ-JKFIT
	 Reference Energy          =     -75.8959944024612696 [Eh]
	 Singles Energy            =      -0.0000000000000000 [Eh]
	 Same-Spin Energy          =      -0.0342899536908669 [Eh]
	 Opposite-Spin Energy      =      -0.1171517953559285 [Eh]
	 Correlation Energy        =      -0.1514417490467954 [Eh]
	 Total Energy              =     -76.0474361515080659 [Eh]

	 ================> DF-SCS-MP2 Energies <==================
	-----------------------------------------------------------
	 SCS Same-Spin Scale       =       0.3333333333333333 [-]
	 SCS Opposite-Spin Scale   =       1.2000000000000000 [-]
	 SCS Same-Spin Energy      =      -0.0114299845636223 [Eh]
	 SCS Opposite-Spin Energy  =      -0.1405821544271142 [Eh]
	 SCS Correlation Energy    =      -0.1520121389907365 [Eh]
	 SCS Total Energy          =     -76.0480065414520112 [Eh]
	-----------------------------------------------------------

  -Total Gradient:
     Atom            X                  Y                   Z
    ------   -----------------  -----------------  -----------------
       1        0.004393277584     0.101633102407    -0.000000000000
       2        0.002001270801    -0.105605643743     0.000000000000
       3       -0.006394548385     0.003972541336     0.000000000000

*** Psi4 exiting successfully. Buy a developer a beer!
