                               Psi4 1.2.1 release

  ==> Input File <==

--------------------------------------------------------------------------
# density fitted hartree fock
molecule h2o {
0 1
H 0.0000000000 0.0000000000 1.1125000000
H 0.0000000000 1.0745924817 -0.2879361877
O 0.0000000000 0.0000000000 0.0000000000
}

set basis 6-31g
energy('hf')

--------------------------------------------------------------------------

    Molecular point group: c2v

    Geometry (in Angstrom), charge = 0, multiplicity = 1:

       Center              X                  Y                   Z               Mass
    ------------   -----------------  -----------------  -----------------  -----------------
         H            0.000000000000    -0.882605591069     0.601453067524     1.007825032070
         H           -0.000000000000     0.882605591069     0.601453067524     1.007825032070
         O            0.000000000000     0.000000000000    -0.075794022223    15.994914619560

  Charge       = 0
  Multiplicity = 1
  Basis Set: 6-31G
    Blend: 6-31G
  Basis Set: (6-31G AUX)
    Blend: CC-PVDZ-JKFIT

    Orbital Energies [Eh]
    ---------------------

    Doubly Occupied:

       1A1   -20.589941     2A1    -1.288575     1B2    -0.633130
       3A1    -0.536521     1B1    -0.495815

  @DF-RHF Final Energy:   -75.94785375137438

   => Energetics <=

    Nuclear Repulsion Energy =              7.9104197522384894
    One-Electron Energy =                -120.6285764584402500
    Two-Electron Energy =                  36.7703029548273932
    Total Energy =                        -75.9478537513743674

  Dipole Moment: [D]
     X:     0.0000      Y:     0.0000      Z:     2.6454     Total:     2.6454

*** Psi4 exiting successfully. Buy a developer a beer!
