                               Psi4 1.2a1.dev429

  ==> Input File <==

--------------------------------------------------------------------------
# density-fitted hartree fock energies and gradients with 6-31g
molecule h20 {
0 1
O 0.0000000000 0.0000000000 0.0000000000
H 0.0000000000 0.0000000000 1.3000000000
H 0.0000000000 0.6128355545 -0.5142300877
}

set basis 6-31g

gradient('hf')
--------------------------------------------------------------------------

    Molecular point group: cs
  Charge       = 0
  Multiplicity = 1
  Basis Set: 6-31G
    Blend: 6-31G
  Basis Set: (6-31G AUX)
    Blend: CC-PVDZ-JKFIT

    Orbital Energies (a.u.)
    -----------------------

    Doubly Occupied:

       1Ap   -20.544188     2Ap    -1.338654     3Ap    -0.696391
       4Ap    -0.491971     1App   -0.482903

  @DF-RHF Final Energy:   -75.87191970665029

   => Energetics <=

    Nuclear Repulsion Energy =              8.8245885061288423
    One-Electron Energy =                -122.2848047793256541
    Two-Electron Energy =                  37.5882965665465179
    Total Energy =                        -75.8719197066502886
    Molecular point group: cs

    Geometry (in Angstrom), charge = 0, multiplicity = 1:

       Center              X                  Y                   Z               Mass
    ------------   -----------------  -----------------  -----------------  -----------------
           O          0.034292706709     0.043969670078     0.000000000000    15.994914619560
           H          0.034292706709    -1.256030329922     0.000000000000     1.007825032070
           H         -0.578542847791     0.558199757778     0.000000000000     1.007825032070

  Basis Set: 6-31G
    Blend: 6-31G
  Basis Set: (6-31G AUX)
    Blend: CC-PVDZ-JKFIT

  -Total Gradient:
     Atom            X                  Y                   Z
    ------   -----------------  -----------------  -----------------
       1       -0.273383336995     0.308031285008     0.000000000000
       2        0.023163435383    -0.147208150800     0.000000000000
       3        0.250219901612    -0.160823134208     0.000000000000

*** Psi4 exiting successfully. Buy a developer a beer!
