                               Psi4 1.2a1.dev429

  ==> Input File <==

--------------------------------------------------------------------------
# density-fitted hartree fock energies and gradients with 6-31g
molecule o2 {
0 3
O 0.0000000000 0.0000000000 0.0000000000
O 0.0000000000 0.0000000000 0.9626262626
}

set basis 6-31g
set reference rohf

gradient('scf')
--------------------------------------------------------------------------

    Molecular point group: d2h
  Charge       = 0
  Multiplicity = 3
  Basis Set: 6-31G
    Blend: 6-31G
  Basis Set: (6-31G AUX)
    Blend: CC-PVDZ-JKFIT

    Orbital Energies (a.u.)
    -----------------------

    Doubly Occupied:

       1Ag   -20.708924     1B1u  -20.705541     2Ag    -1.988932
       2B1u   -1.003917     1B3u   -0.851880     1B2u   -0.851880
       3Ag    -0.793155

    Singly Occupied:

       1B2g   -0.097975     1B3g   -0.097975

  @DF-ROHF Final Energy:  -149.36483266761297

   => Energetics <=

    Nuclear Repulsion Energy =             35.1822328826622623
    One-Electron Energy =                -274.4277034205592827
    Two-Electron Energy =                  89.8806378702840618
    Total Energy =                       -149.3648326676129443
    Molecular point group: d2h

    Geometry (in Angstrom), charge = 0, multiplicity = 3:

       Center              X                  Y                   Z               Mass
    ------------   -----------------  -----------------  -----------------  -----------------
           O          0.000000000000     0.000000000000    -0.481313131300    15.994914619560
           O          0.000000000000     0.000000000000     0.481313131300    15.994914619560

  Basis Set: 6-31G
    Blend: 6-31G
  Basis Set: (6-31G AUX)
    Blend: CC-PVDZ-JKFIT

  -Total Gradient:
     Atom            X                  Y                   Z
    ------   -----------------  -----------------  -----------------
       1       -0.000000000000     0.000000000000     1.015386886870
       2        0.000000000000     0.000000000000    -1.015386886870

*** Psi4 exiting successfully. Buy a developer a beer!
