                               Psi4 1.2a1.dev429

  ==> Input File <==

--------------------------------------------------------------------------
# density-fitted hartree fock energies and gradients with 6-31g
molecule h20 {
0 1
O 0.0000000000 0.0000000000 0.0000000000
O 0.0000000000 0.0000000000 0.9626262626
}

set basis 6-31g

gradient('hf')
--------------------------------------------------------------------------

    Molecular point group: d2h
  Charge       = 0
  Multiplicity = 1
  Basis Set: 6-31G
    Blend: 6-31G
  Basis Set: (6-31G AUX)
    Blend: CC-PVDZ-JKFIT

    Orbital Energies (a.u.)
    -----------------------

    Doubly Occupied:

       1Ag   -20.720692     1B1u  -20.717288     2Ag    -1.996410
       2B1u   -1.008854     1B3u   -0.907253     1B2u   -0.807537
       3Ag    -0.798502     1B2g   -0.361414

  @DF-RHF Final Energy:  -149.29535335486023

   => Energetics <=

    Nuclear Repulsion Energy =             35.1822328826622623
    One-Electron Energy =                -274.3192704571550280
    Two-Electron Energy =                  89.8416842196325121
    Total Energy =                       -149.2953533548602536
    Molecular point group: d2h

    Geometry (in Angstrom), charge = 0, multiplicity = 1:

       Center              X                  Y                   Z               Mass
    ------------   -----------------  -----------------  -----------------  -----------------
           O          0.000000000000     0.000000000000    -0.481313131300    15.994914619560
           O          0.000000000000     0.000000000000     0.481313131300    15.994914619560

  Basis Set: 6-31G
    Blend: 6-31G
  Basis Set: (6-31G AUX)
    Blend: CC-PVDZ-JKFIT

  -Total Gradient:
     Atom            X                  Y                   Z
    ------   -----------------  -----------------  -----------------
       1        0.000000000000    -0.000000000000     1.018278866622
       2       -0.000000000000     0.000000000000    -1.018278866622

*** Psi4 exiting successfully. Buy a developer a beer!
