                               Psi4 1.2a1.dev429

  ==> Input File <==

--------------------------------------------------------------------------
# density-fitted hartree fock energies and gradients with 6-31g
molecule h20 {
0 1
O 0.0000000000 0.0000000000 0.0000000000
H 0.0000000000 0.0000000000 0.7000000000
H 0.0000000000 0.8660254038 -0.5000000000
}

set basis 6-31g

gradient('hf')
--------------------------------------------------------------------------

    Molecular point group: cs
  Charge       = 0
  Multiplicity = 1
  Basis Set: 6-31G
    Blend: 6-31G
  Basis Set: (6-31G AUX)
    Blend: CC-PVDZ-JKFIT

    Orbital Energies (a.u.)
    -----------------------

    Doubly Occupied:

       1Ap   -20.529533     2Ap    -1.432546     3Ap    -0.801404
       4Ap    -0.545591     1App   -0.505094

  @DF-RHF Final Energy:   -75.85525976642924

   => Energetics <=

    Nuclear Repulsion Energy =             10.6387420150449703
    One-Electron Energy =                -125.3596661038537832
    Two-Electron Energy =                  38.8656643223795726
    Total Energy =                        -75.8552597664292421
    Molecular point group: cs

    Geometry (in Angstrom), charge = 0, multiplicity = 1:

       Center              X                  Y                   Z               Mass
    ------------   -----------------  -----------------  -----------------  -----------------
           O          0.048460561658     0.011191487327     0.000000000000    15.994914619560
           H          0.048460561658    -0.688808512673     0.000000000000     1.007825032070
           H         -0.817564842142     0.511191487327     0.000000000000     1.007825032070

  Basis Set: 6-31G
    Blend: 6-31G
  Basis Set: (6-31G AUX)
    Blend: CC-PVDZ-JKFIT

  -Total Gradient:
     Atom            X                  Y                   Z
    ------   -----------------  -----------------  -----------------
       1        0.039929197384    -0.768793268449     0.000000000000
       2        0.009174431559     0.733027670548     0.000000000000
       3       -0.049103628943     0.035765597901     0.000000000000

*** Psi4 exiting successfully. Buy a developer a beer!
