                               Psi4 1.2a1.dev429

  ==> Input File <==

--------------------------------------------------------------------------
# density-fitted hartree fock energies and gradients with 6-31g
molecule h20 {
0 1
O 0.0000000000 0.0000000000 0.0000000000
H 0.0000000000 0.0000000000 0.7000000000
H 0.0000000000 1.3787308542 -0.2431074487
}

set basis 6-31g

gradient('hf')
--------------------------------------------------------------------------

    Molecular point group: cs
  Charge       = 0
  Multiplicity = 1
  Basis Set: 6-31G
    Blend: 6-31G
  Basis Set: (6-31G AUX)
    Blend: CC-PVDZ-JKFIT

    Orbital Energies (a.u.)
    -----------------------

    Doubly Occupied:

       1Ap   -20.571817     2Ap    -1.421591     3Ap    -0.694829
       4Ap    -0.521325     1App   -0.509080

  @DF-RHF Final Energy:   -75.76475174467231

   => Energetics <=

    Nuclear Repulsion Energy =              9.3883995040437824
    One-Electron Energy =                -122.8690197350545361
    Two-Electron Energy =                  37.7158684863384508
    Total Energy =                        -75.7647517446723100
    Molecular point group: cs

    Geometry (in Angstrom), charge = 0, multiplicity = 1:

       Center              X                  Y                   Z               Mass
    ------------   -----------------  -----------------  -----------------  -----------------
           O          0.077150244412     0.025566535989     0.000000000000    15.994914619560
           H          0.077150244412    -0.674433464011     0.000000000000     1.007825032070
           H         -1.301580609788     0.268673984689     0.000000000000     1.007825032070

  Basis Set: 6-31G
    Blend: 6-31G
  Basis Set: (6-31G AUX)
    Blend: CC-PVDZ-JKFIT

  -Total Gradient:
     Atom            X                  Y                   Z
    ------   -----------------  -----------------  -----------------
       1        0.140980132928    -0.768717281833     0.000000000000
       2       -0.008841003034     0.749906283233     0.000000000000
       3       -0.132139129894     0.018810998600     0.000000000000

*** Psi4 exiting successfully. Buy a developer a beer!
