                               Psi4 1.2a1.dev429

  ==> Input File <==

--------------------------------------------------------------------------
# density-fitted hartree fock energies and gradients with 6-31g
molecule h2o {
0 1
O 0.0000000000 0.0000000000 0.0000000000
H 0.0000000000 0.0000000000 0.9000000000
H 0.0000000000 1.3155696691 -0.4788282007
}

set basis 6-31g

gradient('mp2')
--------------------------------------------------------------------------

    Molecular point group: cs
  Charge       = 0
  Multiplicity = 1
  Basis Set: 6-31G
    Blend: 6-31G
  Basis Set: (6-31G AUX)
    Blend: CC-PVDZ-JKFIT

    Orbital Energies (a.u.)
    -----------------------

    Doubly Occupied:

       1Ap   -20.583424     2Ap    -1.312475     3Ap    -0.648850
       4Ap    -0.502734     1App   -0.495163

  @DF-RHF Final Energy:   -75.89211651240633

   => Energetics <=

    Nuclear Repulsion Energy =              8.0053408698514303
    One-Electron Energy =                -120.7096218821278057
    Two-Electron Energy =                  36.8121644998700361
    Total Energy =                        -75.8921165124063322
  Basis Set: (6-31G AUX)
    Blend: CC-PVDZ-RI
    Molecular point group: cs

    Geometry (in Angstrom), charge = 0, multiplicity = 1:

       Center              X                  Y                   Z               Mass
    ------------   -----------------  -----------------  -----------------  -----------------
           O          0.073615906399     0.023567694272     0.000000000000    15.994914619560
           H          0.073615906399    -0.876432305728     0.000000000000     1.007825032070
           H         -1.241953762701     0.502395894972     0.000000000000     1.007825032070

  Basis Set: 6-31G
    Blend: 6-31G
  Basis Set: (6-31G AUX)
    Blend: CC-PVDZ-JKFIT
  Basis Set: (6-31G AUX)
    Blend: CC-PVDZ-JKFIT
	 Reference Energy          =     -75.8921165124063322 [Eh]
	 Singles Energy            =      -0.0000000000000000 [Eh]
	 Same-Spin Energy          =      -0.0328006426361314 [Eh]
	 Opposite-Spin Energy      =      -0.1118408928774342 [Eh]
	 Correlation Energy        =      -0.1446415355135656 [Eh]
	 Total Energy              =     -76.0367580479199034 [Eh]

	 ================> DF-SCS-MP2 Energies <==================
	-----------------------------------------------------------
	 SCS Same-Spin Scale       =       0.3333333333333333 [-]
	 SCS Opposite-Spin Scale   =       1.2000000000000000 [-]
	 SCS Same-Spin Energy      =      -0.0109335475453771 [Eh]
	 SCS Opposite-Spin Energy  =      -0.1342090714529210 [Eh]
	 SCS Correlation Energy    =      -0.1451426189982981 [Eh]
	 SCS Total Energy          =     -76.0372591314046247 [Eh]
	-----------------------------------------------------------

  -Total Gradient:
     Atom            X                  Y                   Z
    ------   -----------------  -----------------  -----------------
       1        0.086553067166    -0.151656703201     0.000000000000
       2        0.015440979161     0.103970514422    -0.000000000000
       3       -0.101994046327     0.047686188779     0.000000000000

*** Psi4 exiting successfully. Buy a developer a beer!
