                               Psi4 1.2a1.dev429

  ==> Input File <==

--------------------------------------------------------------------------
# density-fitted hartree fock energies and gradients with 6-31g
molecule h2o {
0 1
O 0.0000000000 0.0000000000 0.0000000000
H 0.0000000000 0.0000000000 1.3000000000
H 0.0000000000 0.6427876097 -0.7660444431
}

set basis 6-31g

gradient('mp2')
--------------------------------------------------------------------------

    Molecular point group: cs
  Charge       = 0
  Multiplicity = 1
  Basis Set: 6-31G
    Blend: 6-31G
  Basis Set: (6-31G AUX)
    Blend: CC-PVDZ-JKFIT

    Orbital Energies (a.u.)
    -----------------------

    Doubly Occupied:

       1Ap   -20.550452     2Ap    -1.254490     3Ap    -0.644017
       4Ap    -0.467450     1App   -0.466567

  @DF-RHF Final Energy:   -75.89271411733326

   => Energetics <=

    Nuclear Repulsion Energy =              7.7344602281814803
    One-Electron Energy =                -120.4883977045637380
    Two-Electron Energy =                  36.8612233590490064
    Total Energy =                        -75.8927141173332558
  Basis Set: (6-31G AUX)
    Blend: CC-PVDZ-RI
    Molecular point group: cs

    Geometry (in Angstrom), charge = 0, multiplicity = 1:

       Center              X                  Y                   Z               Mass
    ------------   -----------------  -----------------  -----------------  -----------------
           O          0.035968746940     0.029878784242     0.000000000000    15.994914619560
           H          0.035968746940    -1.270121215758     0.000000000000     1.007825032070
           H         -0.606818862760     0.795923227342     0.000000000000     1.007825032070

  Basis Set: 6-31G
    Blend: 6-31G
  Basis Set: (6-31G AUX)
    Blend: CC-PVDZ-JKFIT
  Basis Set: (6-31G AUX)
    Blend: CC-PVDZ-JKFIT
	 Reference Energy          =     -75.8927141173332558 [Eh]
	 Singles Energy            =      -0.0000000000000000 [Eh]
	 Same-Spin Energy          =      -0.0333802158529929 [Eh]
	 Opposite-Spin Energy      =      -0.1089881157971506 [Eh]
	 Correlation Energy        =      -0.1423683316501435 [Eh]
	 Total Energy              =     -76.0350824489834025 [Eh]

	 ================> DF-SCS-MP2 Energies <==================
	-----------------------------------------------------------
	 SCS Same-Spin Scale       =       0.3333333333333333 [-]
	 SCS Opposite-Spin Scale   =       1.2000000000000000 [-]
	 SCS Same-Spin Energy      =      -0.0111267386176643 [Eh]
	 SCS Opposite-Spin Energy  =      -0.1307857389565807 [Eh]
	 SCS Correlation Energy    =      -0.1419124775742450 [Eh]
	 SCS Total Energy          =     -76.0346265949075075 [Eh]
	-----------------------------------------------------------

  -Total Gradient:
     Atom            X                  Y                   Z
    ------   -----------------  -----------------  -----------------
       1       -0.048919952479     0.074150372698     0.000000000000
       2        0.032804109245    -0.121288633456    -0.000000000000
       3        0.016115843234     0.047138260758    -0.000000000000

*** Psi4 exiting successfully. Buy a developer a beer!
