                               Psi4 1.2a1.dev429

  ==> Input File <==

--------------------------------------------------------------------------
# density-fitted hartree fock energies and gradients with 6-31g
molecule h2o {
0 1
O 0.0000000000 0.0000000000 0.0000000000
H 0.0000000000 0.0000000000 1.0000000000
H 0.0000000000 0.7500000000 -1.2990381057
}

set basis 6-31g

gradient('mp2')
--------------------------------------------------------------------------

    Molecular point group: cs
  Charge       = 0
  Multiplicity = 1
  Basis Set: 6-31G
    Blend: 6-31G
  Basis Set: (6-31G AUX)
    Blend: CC-PVDZ-JKFIT

    Orbital Energies (a.u.)
    -----------------------

    Doubly Occupied:

       1Ap   -20.541235     2Ap    -1.231149     3Ap    -0.606215
       1App   -0.452331     4Ap    -0.436065

  @DF-RHF Final Energy:   -75.82548652726302

   => Energetics <=

    Nuclear Repulsion Energy =              7.2745199465894856
    One-Electron Energy =                -119.6660225552577970
    Two-Electron Energy =                  36.5660160814052730
    Total Energy =                        -75.8254865272630241
  Basis Set: (6-31G AUX)
    Blend: CC-PVDZ-RI
    Molecular point group: cs

    Geometry (in Angstrom), charge = 0, multiplicity = 1:

       Center              X                  Y                   Z               Mass
    ------------   -----------------  -----------------  -----------------  -----------------
           O          0.041968077477    -0.016733405852     0.000000000000    15.994914619560
           H          0.041968077477    -1.016733405852     0.000000000000     1.007825032070
           H         -0.708031922523     1.282304699848     0.000000000000     1.007825032070

  Basis Set: 6-31G
    Blend: 6-31G
  Basis Set: (6-31G AUX)
    Blend: CC-PVDZ-JKFIT
  Basis Set: (6-31G AUX)
    Blend: CC-PVDZ-JKFIT
	 Reference Energy          =     -75.8254865272630241 [Eh]
	 Singles Energy            =      -0.0000000000000000 [Eh]
	 Same-Spin Energy          =      -0.0345656422276612 [Eh]
	 Opposite-Spin Energy      =      -0.1154493644730913 [Eh]
	 Correlation Energy        =      -0.1500150067007525 [Eh]
	 Total Energy              =     -75.9755015339637794 [Eh]

	 ================> DF-SCS-MP2 Energies <==================
	-----------------------------------------------------------
	 SCS Same-Spin Scale       =       0.3333333333333333 [-]
	 SCS Opposite-Spin Scale   =       1.2000000000000000 [-]
	 SCS Same-Spin Energy      =      -0.0115218807425537 [Eh]
	 SCS Opposite-Spin Energy  =      -0.1385392373677095 [Eh]
	 SCS Correlation Energy    =      -0.1500611181102632 [Eh]
	 SCS Total Energy          =     -75.9755476453732825 [Eh]
	-----------------------------------------------------------

  -Total Gradient:
     Atom            X                  Y                   Z
    ------   -----------------  -----------------  -----------------
       1       -0.026167456388    -0.090137967968    -0.000000000000
       2        0.050846335720    -0.020402218663     0.000000000000
       3       -0.024678879333     0.110540186631     0.000000000000

*** Psi4 exiting successfully. Buy a developer a beer!
