                               Psi4 1.2a1.dev429

  ==> Input File <==

--------------------------------------------------------------------------
# density-fitted hartree fock energies and gradients with 6-31g
molecule h20 {
0 1
O 0.0000000000 0.0000000000 0.0000000000
H 0.0000000000 0.0000000000 1.2000000000
H 0.0000000000 0.4000000000 -0.6928203230
}

set basis 6-31g

gradient('hf')
--------------------------------------------------------------------------

    Molecular point group: cs
  Charge       = 0
  Multiplicity = 1
  Basis Set: 6-31G
    Blend: 6-31G
  Basis Set: (6-31G AUX)
    Blend: CC-PVDZ-JKFIT

    Orbital Energies (a.u.)
    -----------------------

    Doubly Occupied:

       1Ap   -20.516103     2Ap    -1.322765     3Ap    -0.727576
       4Ap    -0.474298     1App   -0.469721

  @DF-RHF Final Energy:   -75.87854045339992

   => Energetics <=

    Nuclear Repulsion Energy =              9.0931499334485473
    One-Electron Energy =                -122.9224557341619288
    Two-Electron Energy =                  37.9507653473134710
    Total Energy =                        -75.8785404533999213
    Molecular point group: cs

    Geometry (in Angstrom), charge = 0, multiplicity = 1:

       Center              X                  Y                   Z               Mass
    ------------   -----------------  -----------------  -----------------  -----------------
           O          0.022382974654     0.028380474639     0.000000000000    15.994914619560
           H          0.022382974654    -1.171619525361     0.000000000000     1.007825032070
           H         -0.377617025346     0.721200797639     0.000000000000     1.007825032070

  Basis Set: 6-31G
    Blend: 6-31G
  Basis Set: (6-31G AUX)
    Blend: CC-PVDZ-JKFIT

  -Total Gradient:
     Atom            X                  Y                   Z
    ------   -----------------  -----------------  -----------------
       1       -0.203955378991     0.378967181989     0.000000000000
       2        0.026805682319    -0.152551954309     0.000000000000
       3        0.177149696672    -0.226415227680     0.000000000000

*** Psi4 exiting successfully. Buy a developer a beer!
