                               Psi4 1.2a1.dev429

  ==> Input File <==

--------------------------------------------------------------------------
# density-fitted hartree fock energies and gradients with 6-31g
molecule o2 {
0 3
O 0.0000000000 0.0000000000 0.0000000000
O 0.0000000000 0.0000000000 1.1040404040
}

set basis 6-31g
set reference rohf

gradient('scf')
--------------------------------------------------------------------------

    Molecular point group: d2h
  Charge       = 0
  Multiplicity = 3
  Basis Set: 6-31G
    Blend: 6-31G
  Basis Set: (6-31G AUX)
    Blend: CC-PVDZ-JKFIT

    Orbital Energies (a.u.)
    -----------------------

    Doubly Occupied:

       1Ag   -20.729614     1B1u  -20.728257     2Ag    -1.801801
       2B1u   -1.061004     1B2u   -0.763490     1B3u   -0.763490
       3Ag    -0.753374

    Singly Occupied:

       1B3g   -0.182160     1B2g   -0.182160

  @DF-ROHF Final Energy:  -149.51279562382339

   => Energetics <=

    Nuclear Repulsion Energy =             30.6758169601916073
    One-Electron Energy =                -266.1551253948840667
    Two-Electron Energy =                  85.9665128108690766
    Total Energy =                       -149.5127956238233651
    Molecular point group: d2h

    Geometry (in Angstrom), charge = 0, multiplicity = 3:

       Center              X                  Y                   Z               Mass
    ------------   -----------------  -----------------  -----------------  -----------------
           O          0.000000000000     0.000000000000    -0.552020202000    15.994914619560
           O          0.000000000000     0.000000000000     0.552020202000    15.994914619560

  Basis Set: 6-31G
    Blend: 6-31G
  Basis Set: (6-31G AUX)
    Blend: CC-PVDZ-JKFIT

  -Total Gradient:
     Atom            X                  Y                   Z
    ------   -----------------  -----------------  -----------------
       1        0.000000000000    -0.000000000000     0.215456954671
       2       -0.000000000000     0.000000000000    -0.215456954671

*** Psi4 exiting successfully. Buy a developer a beer!
