                               Psi4 1.2a1.dev429

  ==> Input File <==

--------------------------------------------------------------------------
# density-fitted hartree fock energies and gradients with 6-31g
molecule o2 {
0 3
O 0.0000000000 0.0000000000 0.0000000000
O 0.0000000000 0.0000000000 1.4142857143
}

set basis 6-31g
set reference rohf

energy('scf')
--------------------------------------------------------------------------

    Molecular point group: d2h

    Geometry (in Angstrom), charge = 0, multiplicity = 3:

       Center              X                  Y                   Z               Mass
    ------------   -----------------  -----------------  -----------------  -----------------
           O          0.000000000000     0.000000000000    -0.707142857150    15.994914619560
           O          0.000000000000     0.000000000000     0.707142857150    15.994914619560

  Charge       = 0
  Multiplicity = 3
  Basis Set: 6-31G
    Blend: 6-31G
  Basis Set: (6-31G AUX)
    Blend: CC-PVDZ-JKFIT

    Orbital Energies (a.u.)
    -----------------------

    Doubly Occupied:

       1Ag   -20.779895     1B1u  -20.779446     2Ag    -1.528332
       2B1u   -1.168587     3Ag    -0.664739     1B2u   -0.646561
       1B3u   -0.646561

    Singly Occupied:

       1B3g   -0.294920     1B2g   -0.294920

  @DF-ROHF Final Energy:  -149.47429815792151

   => Energetics <=

    Nuclear Repulsion Energy =             23.9466049945379105
    One-Electron Energy =                -253.1980737505280388
    Two-Electron Energy =                  79.7771705980686079
    Total Energy =                       -149.4742981579215098
*** Psi4 exiting successfully. Buy a developer a beer!
