                               Psi4 1.2a1.dev429

  ==> Input File <==

--------------------------------------------------------------------------
# density-fitted hartree fock energies and gradients with 6-31g
molecule h2o {
0 1
O 0.0000000000 0.0000000000 0.0000000000
H 0.0000000000 0.0000000000 1.4000000000
H 0.0000000000 0.1389185421 -0.7878462024
}

set basis 6-31g

gradient('mp2')
--------------------------------------------------------------------------

    Molecular point group: cs
  Charge       = 0
  Multiplicity = 1
  Basis Set: 6-31G
    Blend: 6-31G
  Basis Set: (6-31G AUX)
    Blend: CC-PVDZ-JKFIT

    Orbital Energies (a.u.)
    -----------------------

    Doubly Occupied:

       1Ap   -20.488018     2Ap    -1.282059     3Ap    -0.664835
       1App   -0.438634     4Ap    -0.437105

  @DF-RHF Final Energy:   -75.79890610300997

   => Energetics <=

    Nuclear Repulsion Energy =              8.5570270455670325
    One-Electron Energy =                -122.0905640076095153
    Two-Electron Energy =                  37.7346308590325137
    Total Energy =                        -75.7989061030099833
  Basis Set: (6-31G AUX)
    Blend: CC-PVDZ-RI
    Molecular point group: cs

    Geometry (in Angstrom), charge = 0, multiplicity = 1:

       Center              X                  Y                   Z               Mass
    ------------   -----------------  -----------------  -----------------  -----------------
           O          0.007773525517     0.034254557341     0.000000000000    15.994914619560
           H          0.007773525517    -1.365745442659     0.000000000000     1.007825032070
           H         -0.131145016583     0.822100759741     0.000000000000     1.007825032070

  Basis Set: 6-31G
    Blend: 6-31G
  Basis Set: (6-31G AUX)
    Blend: CC-PVDZ-JKFIT
  Basis Set: (6-31G AUX)
    Blend: CC-PVDZ-JKFIT
	 Reference Energy          =     -75.7989061030099691 [Eh]
	 Singles Energy            =      -0.0000000000000000 [Eh]
	 Same-Spin Energy          =      -0.0321444857808059 [Eh]
	 Opposite-Spin Energy      =      -0.1017269970011235 [Eh]
	 Correlation Energy        =      -0.1338714827819294 [Eh]
	 Total Energy              =     -75.9327775857918965 [Eh]

	 ================> DF-SCS-MP2 Energies <==================
	-----------------------------------------------------------
	 SCS Same-Spin Scale       =       0.3333333333333333 [-]
	 SCS Opposite-Spin Scale   =       1.2000000000000000 [-]
	 SCS Same-Spin Energy      =      -0.0107148285936020 [Eh]
	 SCS Opposite-Spin Energy  =      -0.1220723964013482 [Eh]
	 SCS Correlation Energy    =      -0.1327872249949502 [Eh]
	 SCS Total Energy          =     -75.9316933280049255 [Eh]
	-----------------------------------------------------------

  -Total Gradient:
     Atom            X                  Y                   Z
    ------   -----------------  -----------------  -----------------
       1       -0.098763363914     0.444766216918     0.000000000000
       2        0.016763497697    -0.148661852114    -0.000000000000
       3        0.081999866217    -0.296104364804    -0.000000000000

*** Psi4 exiting successfully. Buy a developer a beer!
