                               Psi4 1.2a1.dev429

  ==> Input File <==

--------------------------------------------------------------------------
# density-fitted hartree fock energies and gradients with 6-31g
molecule h2o {
0 1
O 0.0000000000 0.0000000000 0.0000000000
H 0.0000000000 0.0000000000 1.4000000000
H 0.0000000000 1.2216004070 -0.4446261863
}

set basis 6-31g

gradient('mp2')
--------------------------------------------------------------------------

    Molecular point group: cs
  Charge       = 0
  Multiplicity = 1
  Basis Set: 6-31G
    Blend: 6-31G
  Basis Set: (6-31G AUX)
    Blend: CC-PVDZ-JKFIT

    Orbital Energies (a.u.)
    -----------------------

    Doubly Occupied:

       1Ap   -20.623137     2Ap    -1.230238     3Ap    -0.551533
       1App   -0.493758     4Ap    -0.491591

  @DF-RHF Final Energy:   -75.83624549668018

   => Energetics <=

    Nuclear Repulsion Energy =              6.5195259903738165
    One-Electron Energy =                -117.9310280060776392
    Two-Electron Energy =                  35.5752565190236396
    Total Energy =                        -75.8362454966801778
  Basis Set: (6-31G AUX)
    Blend: CC-PVDZ-RI
    Molecular point group: cs

    Geometry (in Angstrom), charge = 0, multiplicity = 1:

       Center              X                  Y                   Z               Mass
    ------------   -----------------  -----------------  -----------------  -----------------
           O          0.068357627369     0.053460269644     0.000000000000    15.994914619560
           H          0.068357627369    -1.346539730356     0.000000000000     1.007825032070
           H         -1.153242779631     0.498086455944     0.000000000000     1.007825032070

  Basis Set: 6-31G
    Blend: 6-31G
  Basis Set: (6-31G AUX)
    Blend: CC-PVDZ-JKFIT
  Basis Set: (6-31G AUX)
    Blend: CC-PVDZ-JKFIT
	 Reference Energy          =     -75.8362454966801778 [Eh]
	 Singles Energy            =      -0.0000000000000000 [Eh]
	 Same-Spin Energy          =      -0.0373896397706667 [Eh]
	 Opposite-Spin Energy      =      -0.1290535504260792 [Eh]
	 Correlation Energy        =      -0.1664431901967459 [Eh]
	 Total Energy              =     -76.0026886868769225 [Eh]

	 ================> DF-SCS-MP2 Energies <==================
	-----------------------------------------------------------
	 SCS Same-Spin Scale       =       0.3333333333333333 [-]
	 SCS Opposite-Spin Scale   =       1.2000000000000000 [-]
	 SCS Same-Spin Energy      =      -0.0124632132568889 [Eh]
	 SCS Opposite-Spin Energy  =      -0.1548642605112951 [Eh]
	 SCS Correlation Energy    =      -0.1673274737681840 [Eh]
	 SCS Total Energy          =     -76.0035729704483600 [Eh]
	-----------------------------------------------------------

  -Total Gradient:
     Atom            X                  Y                   Z
    ------   -----------------  -----------------  -----------------
       1        0.073252354376     0.052516928621     0.000000000000
       2        0.015045011013    -0.101896691714    -0.000000000000
       3       -0.088297365389     0.049379763093    -0.000000000000

*** Psi4 exiting successfully. Buy a developer a beer!
