                               Psi4 1.3.1 release

  ==> Input File <==

--------------------------------------------------------------------------
# density fitted hartree fock
molecule h2o {
0 1
H 0.0000000000 0.0000000000 1.1500000000
H 0.0000000000 0.9888308262 -0.1490422662
O 0.0000000000 0.0000000000 0.0000000000
}

set basis 6-31g
energy('hf')

--------------------------------------------------------------------------

    Molecular point group: cs

    Geometry (in Angstrom), charge = 0, multiplicity = 1:

       Center              X                  Y                   Z               Mass
    ------------   -----------------  -----------------  -----------------  -----------------
         H            0.055332438309    -1.093988971028     0.000000000000     1.007825032230
         H           -0.933498387891     0.205053295172     0.000000000000     1.007825032230
         O            0.055332438309     0.056011028972     0.000000000000    15.994914619570

  Charge       = 0
  Multiplicity = 1
  Basis Set: 6-31G
    Blend: 6-31G
  Basis Set: (6-31G AUX)
    Blend: CC-PVDZ-JKFIT

    Orbital Energies [Eh]
    ---------------------

    Doubly Occupied:

       1Ap   -20.587619     2Ap    -1.312725     3Ap    -0.644936
       4Ap    -0.551238     1App   -0.500684

  @DF-RHF Final Energy:   -75.95477428919746

   => Energetics <=

    Nuclear Repulsion Energy =              8.2387872329079315
    One-Electron Energy =                -121.1927090383897792
    Two-Electron Energy =                  36.9991475162844026
    Total Energy =                        -75.9547742891974451

  Dipole Moment: [D]
     X:    -2.0796      Y:    -1.7923      Z:     0.0000     Total:     2.7454

*** Psi4 exiting successfully. Buy a developer a beer!
