                               Psi4 1.2a1.dev429

  ==> Input File <==

--------------------------------------------------------------------------
# density-fitted hartree fock energies and gradients with 6-31g
molecule h20 {
0 1
O 0.0000000000 0.0000000000 0.0000000000
H 0.0000000000 0.0000000000 0.7000000000
H 0.0000000000 0.4499513268 -0.5362311102
}

set basis 6-31g

gradient('hf')
--------------------------------------------------------------------------

    Molecular point group: c2v
  Charge       = 0
  Multiplicity = 1
  Basis Set: 6-31G
    Blend: 6-31G
  Basis Set: (6-31G AUX)
    Blend: CC-PVDZ-JKFIT

    Orbital Energies (a.u.)
    -----------------------

    Doubly Occupied:

       1A1   -20.499626     2A1    -1.486925     1B2    -0.967181
       3A1    -0.542932     1B1    -0.520839

  @DF-RHF Final Energy:   -75.73588271149406

   => Energetics <=

    Nuclear Repulsion Energy =             12.4977209268906222
    One-Electron Energy =                -128.4322000673259936
    Two-Electron Energy =                  40.1985964289413218
    Total Energy =                        -75.7358827114940425
    Molecular point group: c2v

    Geometry (in Angstrom), charge = 0, multiplicity = 1:

       Center              X                  Y                   Z               Mass
    ------------   -----------------  -----------------  -----------------  -----------------
           O         -0.000000000000     0.000000000000    -0.026793998699    15.994914619560
           H          0.000000000000    -0.657784834561     0.212620101636     1.007825032070
           H         -0.000000000000     0.657784834561     0.212620101636     1.007825032070

  Basis Set: 6-31G
    Blend: 6-31G
  Basis Set: (6-31G AUX)
    Blend: CC-PVDZ-JKFIT

  -Total Gradient:
     Atom            X                  Y                   Z
    ------   -----------------  -----------------  -----------------
       1        0.000000000000     0.000000000000     0.515438088069
       2       -0.000000000000     0.658469119074    -0.257719044034
       3        0.000000000000    -0.658469119074    -0.257719044034

*** Psi4 exiting successfully. Buy a developer a beer!
