                               Psi4 1.3.1 release

  ==> Input File <==

--------------------------------------------------------------------------
# density fitted hartree fock
molecule h2o {
0 1
H 0.0000000000 0.0000000000 1.2000000000
H 0.0000000000 1.1699134946 -0.2670251207
O 0.0000000000 0.0000000000 0.0000000000
}

set basis 6-31g
energy('hf')

--------------------------------------------------------------------------

    Molecular point group: c2v

    Geometry (in Angstrom), charge = 0, multiplicity = 1:

       Center              X                  Y                   Z               Mass
    ------------   -----------------  -----------------  -----------------  -----------------
         H            0.000000000000    -0.938197778937     0.664454423632     1.007825032230
         H           -0.000000000000     0.938197778937     0.664454423632     1.007825032230
         O           -0.000000000000     0.000000000000    -0.083733338607    15.994914619570

  Charge       = 0
  Multiplicity = 1
  Basis Set: 6-31G
    Blend: 6-31G
  Basis Set: (6-31G AUX)
    Blend: CC-PVDZ-JKFIT

    Orbital Energies [Eh]
    ---------------------

    Doubly Occupied:

       1A1   -20.607310     2A1    -1.264556     1B2    -0.595193
       3A1    -0.526868     1B1    -0.496709

  @DF-RHF Final Energy:   -75.91079820246102

   => Energetics <=

    Nuclear Repulsion Energy =              7.3377140827832079
    One-Electron Energy =                -119.5157502832950343
    Two-Electron Energy =                  36.2672379980508026
    Total Energy =                        -75.9107982024610237

  Dipole Moment: [D]
     X:    -0.0000      Y:     0.0000      Z:     2.6614     Total:     2.6614

*** Psi4 exiting successfully. Buy a developer a beer!
