                               Psi4 1.2a1.dev429

  ==> Input File <==

--------------------------------------------------------------------------
# density-fitted MP2 energies and gradients with 6-31g

molecule h20 {
-1 1
C 0.0000000000 0.0000000000 0.0000000000
X 0.0000000000 0.0000000000 1.0000000000
H 0.0000000000 0.9777426809 -0.5645000000
H 0.8467500000 -0.4888713404 -0.5645000000
H -0.8467500000 -0.4888713404 -0.5645000000
}

set reference rhf
set basis 6-31g

gradient('mp2')
--------------------------------------------------------------------------

    Molecular point group: cs
  Charge       = -1
  Multiplicity = 1
  Basis Set: 6-31G
    Blend: 6-31G
  Basis Set: (6-31G AUX)
    Blend: CC-PVDZ-JKFIT

    Orbital Energies (a.u.)
    -----------------------

    Doubly Occupied:

       1Ap   -10.881651     2Ap    -0.590369     3Ap    -0.191825
       1App   -0.191825     4Ap    -0.005716

  @DF-RHF Final Energy:   -39.44560114338437

   => Energetics <=

    Nuclear Repulsion Energy =              9.3742641025908053
    One-Electron Energy =                 -73.9169582223273949
    Two-Electron Energy =                  25.0970929763522257
    Total Energy =                        -39.4456011433843656
  Basis Set: (6-31G AUX)
    Blend: CC-PVDZ-RI
    Molecular point group: cs

    Geometry (in Angstrom), charge = -1, multiplicity = 1:

       Center              X                  Y                   Z               Mass
    ------------   -----------------  -----------------  -----------------  -----------------
           C          0.000000000003     0.113605652546     0.000000000000    12.000000000000
           H         -0.488871340449    -0.450894347454     0.846749999996     1.007825032070
           H         -0.488871340449    -0.450894347454    -0.846749999996     1.007825032070
           H          0.977742680858    -0.450894347454     0.000000000000     1.007825032070

  Basis Set: 6-31G
    Blend: 6-31G
  Basis Set: (6-31G AUX)
    Blend: CC-PVDZ-JKFIT
  Basis Set: (6-31G AUX)
    Blend: CC-PVDZ-JKFIT
	 Reference Energy          =     -39.4456011433843727 [Eh]
	 Singles Energy            =      -0.0000000000000000 [Eh]
	 Same-Spin Energy          =      -0.0169220833086952 [Eh]
	 Opposite-Spin Energy      =      -0.0806155215179177 [Eh]
	 Correlation Energy        =      -0.0975376048266129 [Eh]
	 Total Energy              =     -39.5431387482109855 [Eh]

	 ================> DF-SCS-MP2 Energies <==================
	-----------------------------------------------------------
	 SCS Same-Spin Scale       =       0.3333333333333333 [-]
	 SCS Opposite-Spin Scale   =       1.2000000000000000 [-]
	 SCS Same-Spin Energy      =      -0.0056406944362317 [Eh]
	 SCS Opposite-Spin Energy  =      -0.0967386258215012 [Eh]
	 SCS Correlation Energy    =      -0.1023793202577330 [Eh]
	 SCS Total Energy          =     -39.5479804636421051 [Eh]
	-----------------------------------------------------------

  -Total Gradient:
     Atom            X                  Y                   Z
    ------   -----------------  -----------------  -----------------
       1       -0.000000000010     0.013078856426    -0.000000000001
       2        0.006648109528    -0.004359618805    -0.011514863404
       3        0.006648109530    -0.004359618805     0.011514863405
       4       -0.013296219048    -0.004359618816    -0.000000000001

*** Psi4 exiting successfully. Buy a developer a beer!
