                               Psi4 1.2a1.dev429

  ==> Input File <==

--------------------------------------------------------------------------
# density-fitted hartree fock energies and gradients with 6-31g
molecule h2o {
0 1
O 0.0000000000 0.0000000000 0.0000000000
H 0.0000000000 0.0000000000 1.1000000000
H 0.0000000000 0.1562833599 -0.8863269777
}

set basis 6-31g

gradient('mp2')
--------------------------------------------------------------------------

    Molecular point group: cs
  Charge       = 0
  Multiplicity = 1
  Basis Set: 6-31G
    Blend: 6-31G
  Basis Set: (6-31G AUX)
    Blend: CC-PVDZ-JKFIT

    Orbital Energies (a.u.)
    -----------------------

    Doubly Occupied:

       1Ap   -20.505324     2Ap    -1.280242     3Ap    -0.732770
       4Ap    -0.459323     1App   -0.458721

  @DF-RHF Final Energy:   -75.91885230440812

   => Energetics <=

    Nuclear Repulsion Energy =              8.8179480522896299
    One-Electron Energy =                -122.6008398621637383
    Two-Electron Energy =                  37.8640395054660104
    Total Energy =                        -75.9188523044081052
  Basis Set: (6-31G AUX)
    Blend: CC-PVDZ-RI
    Molecular point group: cs

    Geometry (in Angstrom), charge = 0, multiplicity = 1:

       Center              X                  Y                   Z               Mass
    ------------   -----------------  -----------------  -----------------  -----------------
           O          0.008745216209     0.011956594606     0.000000000000    15.994914619560
           H          0.008745216209    -1.088043405394     0.000000000000     1.007825032070
           H         -0.147538143691     0.898283572306     0.000000000000     1.007825032070

  Basis Set: 6-31G
    Blend: 6-31G
  Basis Set: (6-31G AUX)
    Blend: CC-PVDZ-JKFIT
  Basis Set: (6-31G AUX)
    Blend: CC-PVDZ-JKFIT
	 Reference Energy          =     -75.9188523044081194 [Eh]
	 Singles Energy            =      -0.0000000000000000 [Eh]
	 Same-Spin Energy          =      -0.0309639473720236 [Eh]
	 Opposite-Spin Energy      =      -0.0970033104615595 [Eh]
	 Correlation Energy        =      -0.1279672578335830 [Eh]
	 Total Energy              =     -76.0468195622417085 [Eh]

	 ================> DF-SCS-MP2 Energies <==================
	-----------------------------------------------------------
	 SCS Same-Spin Scale       =       0.3333333333333333 [-]
	 SCS Opposite-Spin Scale   =       1.2000000000000000 [-]
	 SCS Same-Spin Energy      =      -0.0103213157906745 [Eh]
	 SCS Opposite-Spin Energy  =      -0.1164039725538714 [Eh]
	 SCS Correlation Energy    =      -0.1267252883445459 [Eh]
	 SCS Total Energy          =     -76.0455775927526645 [Eh]
	-----------------------------------------------------------

  -Total Gradient:
     Atom            X                  Y                   Z
    ------   -----------------  -----------------  -----------------
       1       -0.042150586652     0.177522279370    -0.000000000000
       2        0.014103098845    -0.117721696963     0.000000000000
       3        0.028047487808    -0.059800582407     0.000000000000

*** Psi4 exiting successfully. Buy a developer a beer!
