                               Psi4 1.2a1.dev429

  ==> Input File <==

--------------------------------------------------------------------------
# density-fitted hartree fock energies and gradients with 6-31g
molecule h2o {
0 1
O 0.0000000000 0.0000000000 0.0000000000
H 0.0000000000 0.0000000000 0.9000000000
H 0.0000000000 0.5142300877 -0.6128355545
}

set basis 6-31g

gradient('mp2')
--------------------------------------------------------------------------

    Molecular point group: cs
  Charge       = 0
  Multiplicity = 1
  Basis Set: 6-31G
    Blend: 6-31G
  Basis Set: (6-31G AUX)
    Blend: CC-PVDZ-JKFIT

    Orbital Energies (a.u.)
    -----------------------

    Doubly Occupied:

       1Ap   -20.515425     2Ap    -1.382876     3Ap    -0.833612
       4Ap    -0.515436     1App   -0.495720

  @DF-RHF Final Energy:   -75.93840189194657

   => Energetics <=

    Nuclear Repulsion Energy =             10.3267516129820507
    One-Electron Energy =                -125.0441701137447694
    Two-Electron Energy =                  38.7790166088161499
    Total Energy =                        -75.9384018919465689
  Basis Set: (6-31G AUX)
    Blend: CC-PVDZ-RI
    Molecular point group: cs

    Geometry (in Angstrom), charge = 0, multiplicity = 1:

       Center              X                  Y                   Z               Mass
    ------------   -----------------  -----------------  -----------------  -----------------
           O          0.028774997549     0.016068986263     0.000000000000    15.994914619560
           H          0.028774997549    -0.883931013737     0.000000000000     1.007825032070
           H         -0.485455090151     0.628904540763     0.000000000000     1.007825032070

  Basis Set: 6-31G
    Blend: 6-31G
  Basis Set: (6-31G AUX)
    Blend: CC-PVDZ-JKFIT
  Basis Set: (6-31G AUX)
    Blend: CC-PVDZ-JKFIT
	 Reference Energy          =     -75.9384018919465689 [Eh]
	 Singles Energy            =      -0.0000000000000000 [Eh]
	 Same-Spin Energy          =      -0.0285170343048256 [Eh]
	 Opposite-Spin Energy      =      -0.0901622903001404 [Eh]
	 Correlation Energy        =      -0.1186793246049661 [Eh]
	 Total Energy              =     -76.0570812165515378 [Eh]

	 ================> DF-SCS-MP2 Energies <==================
	-----------------------------------------------------------
	 SCS Same-Spin Scale       =       0.3333333333333333 [-]
	 SCS Opposite-Spin Scale   =       1.2000000000000000 [-]
	 SCS Same-Spin Energy      =      -0.0095056781016085 [Eh]
	 SCS Opposite-Spin Energy  =      -0.1081947483601685 [Eh]
	 SCS Correlation Energy    =      -0.1177004264617771 [Eh]
	 SCS Total Energy          =     -76.0561023184083496 [Eh]
	-----------------------------------------------------------

  -Total Gradient:
     Atom            X                  Y                   Z
    ------   -----------------  -----------------  -----------------
       1       -0.237572404288     0.145147846965     0.000000000000
       2        0.025243802293     0.063714094362    -0.000000000000
       3        0.212328601994    -0.208861941327    -0.000000000000

*** Psi4 exiting successfully. Buy a developer a beer!
