                               Psi4 1.2a1.dev429

  ==> Input File <==

--------------------------------------------------------------------------
# density-fitted hartree fock energies and gradients with 6-31g
molecule h20 {
0 1
O 0.0000000000 0.0000000000 0.0000000000
H 0.0000000000 0.0000000000 1.2000000000
H 0.0000000000 0.8999026536 -1.0724622204
}

set basis 6-31g

gradient('hf')
--------------------------------------------------------------------------

    Molecular point group: cs
  Charge       = 0
  Multiplicity = 1
  Basis Set: 6-31G
    Blend: 6-31G
  Basis Set: (6-31G AUX)
    Blend: CC-PVDZ-JKFIT

    Orbital Energies (a.u.)
    -----------------------

    Doubly Occupied:

       1Ap   -20.574205     2Ap    -1.210837     3Ap    -0.576975
       1App   -0.464354     4Ap    -0.452165

  @DF-RHF Final Energy:   -75.83018217257693

   => Energetics <=

    Nuclear Repulsion Energy =              6.7682247584163369
    One-Electron Energy =                -118.6397401034649306
    Two-Electron Energy =                  36.0413331724716741
    Total Energy =                        -75.8301821725769116
    Molecular point group: cs

    Geometry (in Angstrom), charge = 0, multiplicity = 1:

       Center              X                  Y                   Z               Mass
    ------------   -----------------  -----------------  -----------------  -----------------
           O          0.050356245718     0.007136687221     0.000000000000    15.994914619560
           H          0.050356245718    -1.192863312779     0.000000000000     1.007825032070
           H         -0.849546407882     1.079598907621     0.000000000000     1.007825032070

  Basis Set: 6-31G
    Blend: 6-31G
  Basis Set: (6-31G AUX)
    Blend: CC-PVDZ-JKFIT

  -Total Gradient:
     Atom            X                  Y                   Z
    ------   -----------------  -----------------  -----------------
       1        0.028705186879     0.000393907129     0.000000000000
       2        0.034814408820    -0.122517846785     0.000000000000
       3       -0.063519595699     0.122123939656     0.000000000000

*** Psi4 exiting successfully. Buy a developer a beer!
