                               Psi4 1.2a1.dev429

  ==> Input File <==

--------------------------------------------------------------------------
# density-fitted hartree fock energies and gradients with 6-31g
molecule h2o {
0 1
O 0.0000000000 0.0000000000 0.0000000000
H 0.0000000000 0.0000000000 1.4000000000
H 0.0000000000 0.7878462024 -0.1389185421
}

set basis 6-31g

gradient('mp2')
--------------------------------------------------------------------------

    Molecular point group: cs
  Charge       = 0
  Multiplicity = 1
  Basis Set: 6-31G
    Blend: 6-31G
  Basis Set: (6-31G AUX)
    Blend: CC-PVDZ-JKFIT

    Orbital Energies (a.u.)
    -----------------------

    Doubly Occupied:

       1Ap   -20.581591     2Ap    -1.365389     3Ap    -0.671462
       4Ap    -0.517122     1App   -0.504886

  @DF-RHF Final Energy:   -75.85976312277258

   => Energetics <=

    Nuclear Repulsion Energy =              8.6217255572204863
    One-Electron Energy =                -121.6820777624866565
    Two-Electron Energy =                  37.2005890824935932
    Total Energy =                        -75.8597631227725770
  Basis Set: (6-31G AUX)
    Blend: CC-PVDZ-RI
    Molecular point group: cs

    Geometry (in Angstrom), charge = 0, multiplicity = 1:

       Center              X                  Y                   Z               Mass
    ------------   -----------------  -----------------  -----------------  -----------------
           O          0.044085853950     0.070566885774     0.000000000000    15.994914619560
           H          0.044085853950    -1.329433114226     0.000000000000     1.007825032070
           H         -0.743760348450     0.209485427874     0.000000000000     1.007825032070

  Basis Set: 6-31G
    Blend: 6-31G
  Basis Set: (6-31G AUX)
    Blend: CC-PVDZ-JKFIT
  Basis Set: (6-31G AUX)
    Blend: CC-PVDZ-JKFIT
	 Reference Energy          =     -75.8597631227725770 [Eh]
	 Singles Energy            =      -0.0000000000000000 [Eh]
	 Same-Spin Energy          =      -0.0314142856332428 [Eh]
	 Opposite-Spin Energy      =      -0.1084894374418673 [Eh]
	 Correlation Energy        =      -0.1399037230751101 [Eh]
	 Total Energy              =     -75.9996668458476847 [Eh]

	 ================> DF-SCS-MP2 Energies <==================
	-----------------------------------------------------------
	 SCS Same-Spin Scale       =       0.3333333333333333 [-]
	 SCS Opposite-Spin Scale   =       1.2000000000000000 [-]
	 SCS Same-Spin Energy      =      -0.0104714285444143 [Eh]
	 SCS Opposite-Spin Energy  =      -0.1301873249302408 [Eh]
	 SCS Correlation Energy    =      -0.1406587534746550 [Eh]
	 SCS Total Energy          =     -76.0004218762472306 [Eh]
	-----------------------------------------------------------

  -Total Gradient:
     Atom            X                  Y                   Z
    ------   -----------------  -----------------  -----------------
       1       -0.328308629995     0.169966401061    -0.000000000000
       2       -0.001378674637    -0.109383738802    -0.000000000000
       3        0.329687304632    -0.060582662259     0.000000000000

*** Psi4 exiting successfully. Buy a developer a beer!
