                               Psi4 1.2a1.dev429

  ==> Input File <==

--------------------------------------------------------------------------
# density-fitted hartree fock energies and gradients with 6-31g
molecule h20 {
0 1
O 0.0000000000 0.0000000000 0.0000000000
O 0.0000000000 0.0000000000 1.0262626263
}

set basis 6-31g

gradient('hf')
--------------------------------------------------------------------------

    Molecular point group: d2h
  Charge       = 0
  Multiplicity = 1
  Basis Set: 6-31G
    Blend: 6-31G
  Basis Set: (6-31G AUX)
    Blend: CC-PVDZ-JKFIT

    Orbital Energies (a.u.)
    -----------------------

    Doubly Occupied:

       1Ag   -20.727544     1B1u  -20.725372     2Ag    -1.906767
       2B1u   -1.034305     1B3u   -0.866779     3Ag    -0.780306
       1B2u   -0.759502     1B2g   -0.401992

  @DF-RHF Final Energy:  -149.38887632640149

   => Energetics <=

    Nuclear Repulsion Energy =             33.0006574163793118
    One-Electron Energy =                -270.3739342590737351
    Two-Electron Energy =                  87.9844005162929506
    Total Energy =                       -149.3888763264014869
    Molecular point group: d2h

    Geometry (in Angstrom), charge = 0, multiplicity = 1:

       Center              X                  Y                   Z               Mass
    ------------   -----------------  -----------------  -----------------  -----------------
           O          0.000000000000     0.000000000000    -0.513131313150    15.994914619560
           O          0.000000000000     0.000000000000     0.513131313150    15.994914619560

  Basis Set: 6-31G
    Blend: 6-31G
  Basis Set: (6-31G AUX)
    Blend: CC-PVDZ-JKFIT

  -Total Gradient:
     Atom            X                  Y                   Z
    ------   -----------------  -----------------  -----------------
       1       -0.000000000000     0.000000000000     0.568111902122
       2        0.000000000000     0.000000000000    -0.568111902122

*** Psi4 exiting successfully. Buy a developer a beer!
