                               Psi4 1.2a1.dev429

  ==> Input File <==

--------------------------------------------------------------------------
# density-fitted hartree fock energies and gradients with 6-31g
molecule h20 {
0 1
O 0.0000000000 0.0000000000 0.0000000000
H 0.0000000000 0.0000000000 0.9000000000
H 0.0000000000 1.2000000000 0.0000000000
}

set basis 6-31g

gradient('hf')
--------------------------------------------------------------------------

    Molecular point group: cs
  Charge       = 0
  Multiplicity = 1
  Basis Set: 6-31G
    Blend: 6-31G
  Basis Set: (6-31G AUX)
    Blend: CC-PVDZ-JKFIT

    Orbital Energies (a.u.)
    -----------------------

    Doubly Occupied:

       1Ap   -20.587221     2Ap    -1.346298     3Ap    -0.654894
       4Ap    -0.560570     1App   -0.507185

  @DF-RHF Final Energy:   -75.93547498157913

   => Energetics <=

    Nuclear Repulsion Energy =              8.5844302726822228
    One-Electron Energy =                -121.7274734784751047
    Two-Electron Energy =                  37.2075682242137447
    Total Energy =                        -75.9354749815791337
    Molecular point group: cs

    Geometry (in Angstrom), charge = 0, multiplicity = 1:

       Center              X                  Y                   Z               Mass
    ------------   -----------------  -----------------  -----------------  -----------------
           O          0.067148923963     0.050361692973     0.000000000000    15.994914619560
           H          0.067148923963    -0.849638307027     0.000000000000     1.007825032070
           H         -1.132851076037     0.050361692973     0.000000000000     1.007825032070

  Basis Set: 6-31G
    Blend: 6-31G
  Basis Set: (6-31G AUX)
    Blend: CC-PVDZ-JKFIT

  -Total Gradient:
     Atom            X                  Y                   Z
    ------   -----------------  -----------------  -----------------
       1        0.144725846988    -0.056227772880     0.000000000000
       2       -0.032763173075     0.080800153038     0.000000000000
       3       -0.111962673913    -0.024572380158     0.000000000000

*** Psi4 exiting successfully. Buy a developer a beer!
