                               Psi4 1.2a1.dev429

  ==> Input File <==

--------------------------------------------------------------------------
# density-fitted hartree fock energies and gradients with 6-31g
molecule h2o {
0 1
O 0.0000000000 0.0000000000 0.0000000000
H 0.0000000000 0.0000000000 1.0000000000
H 0.0000000000 0.3762221577 -1.0336618829
}

set basis 6-31g

gradient('mp2')
--------------------------------------------------------------------------

    Molecular point group: cs
  Charge       = 0
  Multiplicity = 1
  Basis Set: 6-31G
    Blend: 6-31G
  Basis Set: (6-31G AUX)
    Blend: CC-PVDZ-JKFIT

    Orbital Energies (a.u.)
    -----------------------

    Doubly Occupied:

       1Ap   -20.516842     2Ap    -1.256933     3Ap    -0.699008
       4Ap    -0.458193     1App   -0.456234

  @DF-RHF Final Energy:   -75.92263642986377

   => Energetics <=

    Nuclear Repulsion Energy =              8.3378466519097429
    One-Electron Energy =                -121.7465453825757038
    Two-Electron Energy =                  37.4860623008021889
    Total Energy =                        -75.9226364298637719
  Basis Set: (6-31G AUX)
    Blend: CC-PVDZ-RI
    Molecular point group: cs

    Geometry (in Angstrom), charge = 0, multiplicity = 1:

       Center              X                  Y                   Z               Mass
    ------------   -----------------  -----------------  -----------------  -----------------
           O          0.021052427551    -0.001883632679     0.000000000000    15.994914619560
           H          0.021052427551    -1.001883632679     0.000000000000     1.007825032070
           H         -0.355169730149     1.031778250221     0.000000000000     1.007825032070

  Basis Set: 6-31G
    Blend: 6-31G
  Basis Set: (6-31G AUX)
    Blend: CC-PVDZ-JKFIT
  Basis Set: (6-31G AUX)
    Blend: CC-PVDZ-JKFIT
	 Reference Energy          =     -75.9226364298637719 [Eh]
	 Singles Energy            =      -0.0000000000000000 [Eh]
	 Same-Spin Energy          =      -0.0318722426788517 [Eh]
	 Opposite-Spin Energy      =      -0.1001826447097736 [Eh]
	 Correlation Energy        =      -0.1320548873886254 [Eh]
	 Total Energy              =     -76.0546913172523915 [Eh]

	 ================> DF-SCS-MP2 Energies <==================
	-----------------------------------------------------------
	 SCS Same-Spin Scale       =       0.3333333333333333 [-]
	 SCS Opposite-Spin Scale   =       1.2000000000000000 [-]
	 SCS Same-Spin Energy      =      -0.0106240808929506 [Eh]
	 SCS Opposite-Spin Energy  =      -0.1202191736517284 [Eh]
	 SCS Correlation Energy    =      -0.1308432545446789 [Eh]
	 SCS Total Energy          =     -76.0534796844084440 [Eh]
	-----------------------------------------------------------

  -Total Gradient:
     Atom            X                  Y                   Z
    ------   -----------------  -----------------  -----------------
       1       -0.019449000443    -0.063279873326     0.000000000000
       2        0.030364164148    -0.047417360294    -0.000000000000
       3       -0.010915163704     0.110697233620    -0.000000000000

*** Psi4 exiting successfully. Buy a developer a beer!
