                               Psi4 1.2a1.dev429

  ==> Input File <==

--------------------------------------------------------------------------
# density-fitted hartree fock energies and gradients with 6-31g
molecule h2o {
0 1
O 0.0000000000 0.0000000000 0.0000000000
H 0.0000000000 0.0000000000 1.4000000000
H 0.0000000000 0.7660444431 -0.6427876097
}

set basis 6-31g

gradient('mp2')
--------------------------------------------------------------------------

    Molecular point group: cs
  Charge       = 0
  Multiplicity = 1
  Basis Set: 6-31G
    Blend: 6-31G
  Basis Set: (6-31G AUX)
    Blend: CC-PVDZ-JKFIT

    Orbital Energies (a.u.)
    -----------------------

    Doubly Occupied:

       1Ap   -20.570443     2Ap    -1.260500     3Ap    -0.626343
       1App   -0.476348     4Ap    -0.472594

  @DF-RHF Final Energy:   -75.87812109214747

   => Energetics <=

    Nuclear Repulsion Energy =              7.4998403684881652
    One-Electron Energy =                -119.9434678596537509
    Two-Electron Energy =                  36.5655063990181333
    Total Energy =                        -75.8781210921474525
  Basis Set: (6-31G AUX)
    Blend: CC-PVDZ-RI
    Molecular point group: cs

    Geometry (in Angstrom), charge = 0, multiplicity = 1:

       Center              X                  Y                   Z               Mass
    ------------   -----------------  -----------------  -----------------  -----------------
           O          0.042865883385     0.042371664350     0.000000000000    15.994914619560
           H          0.042865883385    -1.357628335650     0.000000000000     1.007825032070
           H         -0.723178559715     0.685159274050     0.000000000000     1.007825032070

  Basis Set: 6-31G
    Blend: 6-31G
  Basis Set: (6-31G AUX)
    Blend: CC-PVDZ-JKFIT
  Basis Set: (6-31G AUX)
    Blend: CC-PVDZ-JKFIT
	 Reference Energy          =     -75.8781210921474667 [Eh]
	 Singles Energy            =      -0.0000000000000000 [Eh]
	 Same-Spin Energy          =      -0.0339936559400644 [Eh]
	 Opposite-Spin Energy      =      -0.1140949283100061 [Eh]
	 Correlation Energy        =      -0.1480885842500705 [Eh]
	 Total Energy              =     -76.0262096763975421 [Eh]

	 ================> DF-SCS-MP2 Energies <==================
	-----------------------------------------------------------
	 SCS Same-Spin Scale       =       0.3333333333333333 [-]
	 SCS Opposite-Spin Scale   =       1.2000000000000000 [-]
	 SCS Same-Spin Energy      =      -0.0113312186466881 [Eh]
	 SCS Opposite-Spin Energy  =      -0.1369139139720073 [Eh]
	 SCS Correlation Energy    =      -0.1482451326186954 [Eh]
	 SCS Total Energy          =     -76.0263662247661642 [Eh]
	-----------------------------------------------------------

  -Total Gradient:
     Atom            X                  Y                   Z
    ------   -----------------  -----------------  -----------------
       1       -0.037470851587     0.073760644260     0.000000000000
       2        0.026800422412    -0.113786744697    -0.000000000000
       3        0.010670429175     0.040026100437    -0.000000000000

*** Psi4 exiting successfully. Buy a developer a beer!
