                               Psi4 1.2a1.dev429

  ==> Input File <==

--------------------------------------------------------------------------
# density-fitted hartree fock energies and gradients with 6-31g
molecule h2o {
0 1
O 0.0000000000 0.0000000000 0.0000000000
H 0.0000000000 0.0000000000 1.5000000000
H 0.0000000000 0.5000000000 -0.8660254038
}

set basis 6-31g

gradient('mp2')
--------------------------------------------------------------------------

    Molecular point group: cs
  Charge       = 0
  Multiplicity = 1
  Basis Set: 6-31G
    Blend: 6-31G
  Basis Set: (6-31G AUX)
    Blend: CC-PVDZ-JKFIT

    Orbital Energies (a.u.)
    -----------------------

    Doubly Occupied:

       1Ap   -20.541235     2Ap    -1.231149     3Ap    -0.606215
       1App   -0.452331     4Ap    -0.436065

  @DF-RHF Final Energy:   -75.82548652728005

   => Energetics <=

    Nuclear Repulsion Energy =              7.2745199465710995
    One-Electron Energy =                -119.6660225536063251
    Two-Electron Energy =                  36.5660160797551654
    Total Energy =                        -75.8254865272800487
  Basis Set: (6-31G AUX)
    Blend: CC-PVDZ-RI
    Molecular point group: cs

    Geometry (in Angstrom), charge = 0, multiplicity = 1:

       Center              X                  Y                   Z               Mass
    ------------   -----------------  -----------------  -----------------  -----------------
           O          0.027978718318     0.035475593296     0.000000000000    15.994914619560
           H          0.027978718318    -1.464524406704     0.000000000000     1.007825032070
           H         -0.472021281682     0.901500997096     0.000000000000     1.007825032070

  Basis Set: 6-31G
    Blend: 6-31G
  Basis Set: (6-31G AUX)
    Blend: CC-PVDZ-JKFIT
  Basis Set: (6-31G AUX)
    Blend: CC-PVDZ-JKFIT
	 Reference Energy          =     -75.8254865272800487 [Eh]
	 Singles Energy            =      -0.0000000000000000 [Eh]
	 Same-Spin Energy          =      -0.0345656422285774 [Eh]
	 Opposite-Spin Energy      =      -0.1154493644794590 [Eh]
	 Correlation Energy        =      -0.1500150067080364 [Eh]
	 Total Energy              =     -75.9755015339880799 [Eh]

	 ================> DF-SCS-MP2 Energies <==================
	-----------------------------------------------------------
	 SCS Same-Spin Scale       =       0.3333333333333333 [-]
	 SCS Opposite-Spin Scale   =       1.2000000000000000 [-]
	 SCS Same-Spin Energy      =      -0.0115218807428591 [Eh]
	 SCS Opposite-Spin Energy  =      -0.1385392373753507 [Eh]
	 SCS Correlation Energy    =      -0.1500611181182099 [Eh]
	 SCS Total Energy          =     -75.9755476453982652 [Eh]
	-----------------------------------------------------------

  -Total Gradient:
     Atom            X                  Y                   Z
    ------   -----------------  -----------------  -----------------
       1       -0.067730665415     0.064978042957     0.000000000000
       2        0.033897556246    -0.108070048567    -0.000000000000
       3        0.033833109168     0.043092005609    -0.000000000000

*** Psi4 exiting successfully. Buy a developer a beer!
