                               Psi4 1.3.1 release

  ==> Input File <==

--------------------------------------------------------------------------
# density fitted MP2
molecule h2o {
0 1
H 0.0000000000 0.0000000000 1.2000000000
H 0.0000000000 0.8500000000 0.0000000000
O 0.0000000000 0.0000000000 0.0000000000
}

set basis 6-31g
energy('mp2')

--------------------------------------------------------------------------

    Molecular point group: cs

    Geometry (in Angstrom), charge = 0, multiplicity = 1:

       Center              X                  Y                   Z               Mass
    ------------   -----------------  -----------------  -----------------  -----------------
         H            0.047563821147    -1.132851076027     0.000000000000     1.007825032230
         H           -0.802436178853     0.067148923973     0.000000000000     1.007825032230
         O            0.047563821147     0.067148923973     0.000000000000    15.994914619570

  Charge       = 0
  Multiplicity = 1
  Basis Set: 6-31G
    Blend: 6-31G
  Basis Set: (6-31G AUX)
    Blend: CC-PVDZ-JKFIT

    Orbital Energies [Eh]
    ---------------------

    Doubly Occupied:

       1Ap   -20.581627     2Ap    -1.366368     3Ap    -0.668386
       4Ap    -0.562151     1App   -0.508591

  @DF-RHF Final Energy:   -75.92365011289976

   => Energetics <=

    Nuclear Repulsion Energy =              8.8681907646310165
    One-Electron Energy =                -122.2094367308282870
    Two-Electron Energy =                  37.4175958532974988
    Total Energy =                        -75.9236501128997787

  Dipole Moment: [D]
     X:    -2.0318      Y:    -1.9768      Z:     0.0000     Total:     2.8348

  Basis Set: (6-31G AUX)
    Blend: CC-PVDZ-RI
	 Reference Energy          =     -75.9236501128997645 [Eh]
	 Singles Energy            =      -0.0000000000000000 [Eh]
	 Same-Spin Energy          =      -0.0310811042202522 [Eh]
	 Opposite-Spin Energy      =      -0.1044102902237322 [Eh]
	 Correlation Energy        =      -0.1354913944439844 [Eh]
	 Total Energy              =     -76.0591415073437531 [Eh]

	 ================> DF-SCS-MP2 Energies <==================
	-----------------------------------------------------------
	 SCS Same-Spin Scale       =       0.3333333333333333 [-]
	 SCS Opposite-Spin Scale   =       1.2000000000000000 [-]
	 SCS Same-Spin Energy      =      -0.0103603680734174 [Eh]
	 SCS Opposite-Spin Energy  =      -0.1252923482684786 [Eh]
	 SCS Correlation Energy    =      -0.1356527163418960 [Eh]
	 SCS Total Energy          =     -76.0593028292416591 [Eh]
	-----------------------------------------------------------

*** Psi4 exiting successfully. Buy a developer a beer!
