                               Psi4 1.2a1.dev429

  ==> Input File <==

--------------------------------------------------------------------------
# density-fitted hartree fock energies and gradients with 6-31g
molecule h2o {
0 1
O 0.0000000000 0.0000000000 0.0000000000
H 0.0000000000 0.0000000000 0.9000000000
H 0.0000000000 0.2604722665 -1.4772116295
}

set basis 6-31g

gradient('mp2')
--------------------------------------------------------------------------

    Molecular point group: cs
  Charge       = 0
  Multiplicity = 1
  Basis Set: 6-31G
    Blend: 6-31G
  Basis Set: (6-31G AUX)
    Blend: CC-PVDZ-JKFIT

    Orbital Energies (a.u.)
    -----------------------

    Doubly Occupied:

       1Ap   -20.491912     2Ap    -1.231536     3Ap    -0.614134
       1App   -0.426129     4Ap    -0.422204

  @DF-RHF Final Energy:   -75.80001271553864

   => Energetics <=

    Nuclear Repulsion Energy =              7.7473556741416703
    One-Electron Energy =                -120.7229059982277590
    Two-Electron Energy =                  37.1755376085474509
    Total Energy =                        -75.8000127155386281
  Basis Set: (6-31G AUX)
    Blend: CC-PVDZ-RI
    Molecular point group: cs

    Geometry (in Angstrom), charge = 0, multiplicity = 1:

       Center              X                  Y                   Z               Mass
    ------------   -----------------  -----------------  -----------------  -----------------
           O          0.014575360348    -0.032299283183     0.000000000000    15.994914619560
           H          0.014575360348    -0.932299283183     0.000000000000     1.007825032070
           H         -0.245896906152     1.444912346317     0.000000000000     1.007825032070

  Basis Set: 6-31G
    Blend: 6-31G
  Basis Set: (6-31G AUX)
    Blend: CC-PVDZ-JKFIT
  Basis Set: (6-31G AUX)
    Blend: CC-PVDZ-JKFIT
	 Reference Energy          =     -75.8000127155386423 [Eh]
	 Singles Energy            =      -0.0000000000000000 [Eh]
	 Same-Spin Energy          =      -0.0334771096766090 [Eh]
	 Opposite-Spin Energy      =      -0.1068249494644822 [Eh]
	 Correlation Energy        =      -0.1403020591410912 [Eh]
	 Total Energy              =     -75.9403147746797345 [Eh]

	 ================> DF-SCS-MP2 Energies <==================
	-----------------------------------------------------------
	 SCS Same-Spin Scale       =       0.3333333333333333 [-]
	 SCS Opposite-Spin Scale   =       1.2000000000000000 [-]
	 SCS Same-Spin Energy      =      -0.0111590365588697 [Eh]
	 SCS Opposite-Spin Energy  =      -0.1281899393573786 [Eh]
	 SCS Correlation Energy    =      -0.1393489759162483 [Eh]
	 SCS Total Energy          =     -75.9393616914548915 [Eh]
	-----------------------------------------------------------

  -Total Gradient:
     Atom            X                  Y                   Z
    ------   -----------------  -----------------  -----------------
       1       -0.034751891477    -0.217999737092    -0.000000000000
       2        0.036420926470     0.082690318112    -0.000000000000
       3       -0.001669034994     0.135309418980     0.000000000000

*** Psi4 exiting successfully. Buy a developer a beer!
