                               Psi4 1.2a1.dev429

  ==> Input File <==

--------------------------------------------------------------------------
# density-fitted hartree fock energies and gradients with 6-31g
molecule h2o {
0 1
O 0.0000000000 0.0000000000 0.0000000000
H 0.0000000000 0.0000000000 0.8000000000
H 0.0000000000 0.9958577761 -0.8356238926
}

set basis 6-31g

gradient('mp2')
--------------------------------------------------------------------------

    Molecular point group: cs
  Charge       = 0
  Multiplicity = 1
  Basis Set: 6-31G
    Blend: 6-31G
  Basis Set: (6-31G AUX)
    Blend: CC-PVDZ-JKFIT

    Orbital Energies (a.u.)
    -----------------------

    Doubly Occupied:

       1Ap   -20.544188     2Ap    -1.338654     3Ap    -0.696391
       4Ap    -0.491971     1App   -0.482903

  @DF-RHF Final Energy:   -75.87191970664173

   => Energetics <=

    Nuclear Repulsion Energy =              8.8245885058340381
    One-Electron Energy =                -122.2848047718968729
    Two-Electron Energy =                  37.5882965594210887
    Total Energy =                        -75.8719197066417337
  Basis Set: (6-31G AUX)
    Blend: CC-PVDZ-RI
    Molecular point group: cs

    Geometry (in Angstrom), charge = 0, multiplicity = 1:

       Center              X                  Y                   Z               Mass
    ------------   -----------------  -----------------  -----------------  -----------------
           O          0.055725648405    -0.001993421713     0.000000000000    15.994914619560
           H          0.055725648405    -0.801993421713     0.000000000000     1.007825032070
           H         -0.940132127695     0.833630470887     0.000000000000     1.007825032070

  Basis Set: 6-31G
    Blend: 6-31G
  Basis Set: (6-31G AUX)
    Blend: CC-PVDZ-JKFIT
  Basis Set: (6-31G AUX)
    Blend: CC-PVDZ-JKFIT
	 Reference Energy          =     -75.8719197066417337 [Eh]
	 Singles Energy            =      -0.0000000000000000 [Eh]
	 Same-Spin Energy          =      -0.0312291903050395 [Eh]
	 Opposite-Spin Energy      =      -0.1029288902849967 [Eh]
	 Correlation Energy        =      -0.1341580805900362 [Eh]
	 Total Energy              =     -76.0060777872317743 [Eh]

	 ================> DF-SCS-MP2 Energies <==================
	-----------------------------------------------------------
	 SCS Same-Spin Scale       =       0.3333333333333333 [-]
	 SCS Opposite-Spin Scale   =       1.2000000000000000 [-]
	 SCS Same-Spin Energy      =      -0.0104097301016798 [Eh]
	 SCS Opposite-Spin Energy  =      -0.1235146683419960 [Eh]
	 SCS Correlation Energy    =      -0.1339243984436758 [Eh]
	 SCS Total Energy          =     -76.0058441050854157 [Eh]
	-----------------------------------------------------------

  -Total Gradient:
     Atom            X                  Y                   Z
    ------   -----------------  -----------------  -----------------
       1        0.042013506093    -0.419699766524    -0.000000000000
       2        0.039057636995     0.320296924445     0.000000000000
       3       -0.081071143087     0.099402842080     0.000000000000

*** Psi4 exiting successfully. Buy a developer a beer!
