                               Psi4 1.3.1 release

  ==> Input File <==

--------------------------------------------------------------------------
# density fitted hartree fock
molecule h2o {
0 1
H 0.0000000000 0.0000000000 0.9500000000
H 0.0000000000 0.9500000000 0.0000000000
O 0.0000000000 0.0000000000 0.0000000000
}

set basis 6-31g
energy('hf')

--------------------------------------------------------------------------

    Molecular point group: c2v

    Geometry (in Angstrom), charge = 0, multiplicity = 1:

       Center              X                  Y                   Z               Mass
    ------------   -----------------  -----------------  -----------------  -----------------
         H            0.000000000000    -0.671751442127     0.596572464600     1.007825032230
         H           -0.000000000000     0.671751442127     0.596572464600     1.007825032230
         O           -0.000000000000     0.000000000000    -0.075178977527    15.994914619570

  Charge       = 0
  Multiplicity = 1
  Basis Set: 6-31G
    Blend: 6-31G
  Basis Set: (6-31G AUX)
    Blend: CC-PVDZ-JKFIT

    Orbital Energies [Eh]
    ---------------------

    Doubly Occupied:

       1A1   -20.568569     2A1    -1.377894     1B2    -0.685299
       3A1    -0.590525     1B1    -0.508384

  @DF-RHF Final Energy:   -75.97131812450473

   => Energetics <=

    Nuclear Repulsion Energy =              9.3063370156148828
    One-Electron Energy =                -123.0939833807627934
    Two-Electron Energy =                  37.8163282406431662
    Total Energy =                        -75.9713181245047338

  Dipole Moment: [D]
     X:    -0.0000      Y:     0.0000      Z:     2.8497     Total:     2.8497

*** Psi4 exiting successfully. Buy a developer a beer!
