                               Psi4 1.2a1.dev429

  ==> Input File <==

--------------------------------------------------------------------------
# density-fitted hartree fock energies and gradients with 6-31g
molecule h2o {
0 1
O 0.0000000000 0.0000000000 0.0000000000
H 0.0000000000 0.0000000000 0.8000000000
H 0.0000000000 1.2216004070 -0.4446261863
}

set basis 6-31g

gradient('mp2')
--------------------------------------------------------------------------

    Molecular point group: cs
  Charge       = 0
  Multiplicity = 1
  Basis Set: 6-31G
    Blend: 6-31G
  Basis Set: (6-31G AUX)
    Blend: CC-PVDZ-JKFIT

    Orbital Energies (a.u.)
    -----------------------

    Doubly Occupied:

       1Ap   -20.566632     2Ap    -1.360430     3Ap    -0.686597
       4Ap    -0.521368     1App   -0.498281

  @DF-RHF Final Energy:   -75.88493611551610

   => Energetics <=

    Nuclear Repulsion Energy =              8.8516812035686048
    One-Electron Energy =                -122.2066190839272792
    Two-Electron Energy =                  37.4700017648425785
    Total Energy =                        -75.8849361155160977
  Basis Set: (6-31G AUX)
    Blend: CC-PVDZ-RI
    Molecular point group: cs

    Geometry (in Angstrom), charge = 0, multiplicity = 1:

       Center              X                  Y                   Z               Mass
    ------------   -----------------  -----------------  -----------------  -----------------
           O          0.068357627369     0.019885807662     0.000000000000    15.994914619560
           H          0.068357627369    -0.780114192338     0.000000000000     1.007825032070
           H         -1.153242779631     0.464511993962     0.000000000000     1.007825032070

  Basis Set: 6-31G
    Blend: 6-31G
  Basis Set: (6-31G AUX)
    Blend: CC-PVDZ-JKFIT
  Basis Set: (6-31G AUX)
    Blend: CC-PVDZ-JKFIT
	 Reference Energy          =     -75.8849361155160977 [Eh]
	 Singles Energy            =      -0.0000000000000000 [Eh]
	 Same-Spin Energy          =      -0.0309133882560276 [Eh]
	 Opposite-Spin Energy      =      -0.1040532404438818 [Eh]
	 Correlation Energy        =      -0.1349666286999094 [Eh]
	 Total Energy              =     -76.0199027442160116 [Eh]

	 ================> DF-SCS-MP2 Energies <==================
	-----------------------------------------------------------
	 SCS Same-Spin Scale       =       0.3333333333333333 [-]
	 SCS Opposite-Spin Scale   =       1.2000000000000000 [-]
	 SCS Same-Spin Energy      =      -0.0103044627520092 [Eh]
	 SCS Opposite-Spin Energy  =      -0.1248638885326582 [Eh]
	 SCS Correlation Energy    =      -0.1351683512846674 [Eh]
	 SCS Total Energy          =     -76.0201044668007597 [Eh]
	-----------------------------------------------------------

  -Total Gradient:
     Atom            X                  Y                   Z
    ------   -----------------  -----------------  -----------------
       1        0.095718463195    -0.374908227829    -0.000000000000
       2        0.010983221280     0.328879315457     0.000000000000
       3       -0.106701684475     0.046028912371     0.000000000000

*** Psi4 exiting successfully. Buy a developer a beer!
