                               Psi4 1.2a1.dev429

  ==> Input File <==

--------------------------------------------------------------------------
# density-fitted hartree fock energies and gradients with 6-31g
molecule h20 {
0 1
O 0.0000000000 0.0000000000 0.0000000000
H 0.0000000000 0.0000000000 1.4000000000
H 0.0000000000 1.1258330249 -0.6500000000
}

set basis 6-31g

gradient('hf')
--------------------------------------------------------------------------

    Molecular point group: cs
  Charge       = 0
  Multiplicity = 1
  Basis Set: 6-31G
    Blend: 6-31G
  Basis Set: (6-31G AUX)
    Blend: CC-PVDZ-JKFIT

    Orbital Energies (a.u.)
    -----------------------

    Doubly Occupied:

       1Ap   -20.612147     2Ap    -1.221944     3Ap    -0.555121
       1App   -0.485980     4Ap    -0.477750

  @DF-RHF Final Energy:   -75.82933280593542

   => Energetics <=

    Nuclear Repulsion Energy =              6.5066047291455575
    One-Electron Energy =                -117.9659890330646306
    Two-Electron Energy =                  35.6300514979836507
    Total Energy =                        -75.8293328059354224
    Molecular point group: cs

    Geometry (in Angstrom), charge = 0, multiplicity = 1:

       Center              X                  Y                   Z               Mass
    ------------   -----------------  -----------------  -----------------  -----------------
           O          0.062998730154     0.041968077477     0.000000000000    15.994914619560
           H          0.062998730154    -1.358031922523     0.000000000000     1.007825032070
           H         -1.062834294746     0.691968077477     0.000000000000     1.007825032070

  Basis Set: 6-31G
    Blend: 6-31G
  Basis Set: (6-31G AUX)
    Blend: CC-PVDZ-JKFIT

  -Total Gradient:
     Atom            X                  Y                   Z
    ------   -----------------  -----------------  -----------------
       1        0.083375284861     0.048976108310     0.000000000000
       2        0.018838142719    -0.131414733952     0.000000000000
       3       -0.102213427580     0.082438625643     0.000000000000

*** Psi4 exiting successfully. Buy a developer a beer!
