                               Psi4 1.2a1.dev429

  ==> Input File <==

--------------------------------------------------------------------------
# density-fitted hartree fock energies and gradients with 6-31g
molecule h2o {
0 1
O 0.0000000000 0.0000000000 0.0000000000
H 0.0000000000 0.0000000000 0.9000000000
H 0.0000000000 0.7517540966 -0.2736161147
}

set basis 6-31g

gradient('mp2')
--------------------------------------------------------------------------

    Molecular point group: cs
  Charge       = 0
  Multiplicity = 1
  Basis Set: 6-31G
    Blend: 6-31G
  Basis Set: (6-31G AUX)
    Blend: CC-PVDZ-JKFIT

    Orbital Energies (a.u.)
    -----------------------

    Doubly Occupied:

       1Ap   -20.535770     2Ap    -1.418625     3Ap    -0.786945
       4Ap    -0.565615     1App   -0.507331

  @DF-RHF Final Energy:   -75.94768252807762

   => Energetics <=

    Nuclear Repulsion Energy =             10.3752511476974245
    One-Electron Energy =                -125.0172935169188975
    Two-Electron Energy =                  38.6943598411438501
    Total Energy =                        -75.9476825280776211
  Basis Set: (6-31G AUX)
    Blend: CC-PVDZ-RI
    Molecular point group: cs

    Geometry (in Angstrom), charge = 0, multiplicity = 1:

       Center              X                  Y                   Z               Mass
    ------------   -----------------  -----------------  -----------------  -----------------
           O          0.042066232226     0.035050836572     0.000000000000    15.994914619560
           H          0.042066232226    -0.864949163428     0.000000000000     1.007825032070
           H         -0.709687864374     0.308666951272     0.000000000000     1.007825032070

  Basis Set: 6-31G
    Blend: 6-31G
  Basis Set: (6-31G AUX)
    Blend: CC-PVDZ-JKFIT
  Basis Set: (6-31G AUX)
    Blend: CC-PVDZ-JKFIT
	 Reference Energy          =     -75.9476825280776211 [Eh]
	 Singles Energy            =      -0.0000000000000000 [Eh]
	 Same-Spin Energy          =      -0.0279044976766451 [Eh]
	 Opposite-Spin Energy      =      -0.0908797809021862 [Eh]
	 Correlation Energy        =      -0.1187842785788313 [Eh]
	 Total Energy              =     -76.0664668066564502 [Eh]

	 ================> DF-SCS-MP2 Energies <==================
	-----------------------------------------------------------
	 SCS Same-Spin Scale       =       0.3333333333333333 [-]
	 SCS Opposite-Spin Scale   =       1.2000000000000000 [-]
	 SCS Same-Spin Energy      =      -0.0093014992255484 [Eh]
	 SCS Opposite-Spin Energy  =      -0.1090557370826235 [Eh]
	 SCS Correlation Energy    =      -0.1183572363081718 [Eh]
	 SCS Total Energy          =     -76.0660397643857920 [Eh]
	-----------------------------------------------------------

  -Total Gradient:
     Atom            X                  Y                   Z
    ------   -----------------  -----------------  -----------------
       1       -0.282342474139     0.033167139871    -0.000000000000
       2       -0.011549787824     0.087628297755     0.000000000000
       3        0.293892261963    -0.120795437626    -0.000000000000

*** Psi4 exiting successfully. Buy a developer a beer!
