                               Psi4 1.2a1.dev429

  ==> Input File <==

--------------------------------------------------------------------------
# density-fitted hartree fock energies and gradients with 6-31g
molecule h20 {
0 1
O 0.0000000000 0.0000000000 0.0000000000
O 0.0000000000 0.0000000000 0.9060606061
}

set basis 6-31g

gradient('hf')
--------------------------------------------------------------------------

    Molecular point group: d2h
  Charge       = 0
  Multiplicity = 1
  Basis Set: 6-31G
    Blend: 6-31G
  Basis Set: (6-31G AUX)
    Blend: CC-PVDZ-JKFIT

    Orbital Energies (a.u.)
    -----------------------

    Doubly Occupied:

       1Ag   -20.719425     1B1u  -20.714031     2Ag    -2.081346
       2B1u   -0.986605     1B2u   -0.950358     1B3u   -0.858043
       3Ag    -0.814996     1B3g   -0.319972

  @DF-RHF Final Energy:  -149.15696959168454

   => Energetics <=

    Nuclear Repulsion Energy =             37.3786710532938997
    One-Electron Energy =                -278.1817288131408077
    Two-Electron Energy =                  91.6460881681623789
    Total Energy =                       -149.1569695916845433
    Molecular point group: d2h

    Geometry (in Angstrom), charge = 0, multiplicity = 1:

       Center              X                  Y                   Z               Mass
    ------------   -----------------  -----------------  -----------------  -----------------
           O          0.000000000000     0.000000000000    -0.453030303050    15.994914619560
           O          0.000000000000     0.000000000000     0.453030303050    15.994914619560

  Basis Set: 6-31G
    Blend: 6-31G
  Basis Set: (6-31G AUX)
    Blend: CC-PVDZ-JKFIT

  -Total Gradient:
     Atom            X                  Y                   Z
    ------   -----------------  -----------------  -----------------
       1        0.000000000000     0.000000000000     1.605980647617
       2       -0.000000000000    -0.000000000000    -1.605980647617

*** Psi4 exiting successfully. Buy a developer a beer!
