                               Psi4 1.2a1.dev429

  ==> Input File <==

--------------------------------------------------------------------------
# density-fitted hartree fock energies and gradients with 6-31g
molecule o2 {
0 3
O 0.0000000000 0.0000000000 0.0000000000
O 0.0000000000 0.0000000000 1.4929292929
}

set basis 6-31g
set reference rohf

gradient('scf')
--------------------------------------------------------------------------

    Molecular point group: d2h
  Charge       = 0
  Multiplicity = 3
  Basis Set: 6-31G
    Blend: 6-31G
  Basis Set: (6-31G AUX)
    Blend: CC-PVDZ-JKFIT

    Orbital Energies (a.u.)
    -----------------------

    Doubly Occupied:

       1Ag   -20.788103     1B1u  -20.787719     2Ag    -1.484803
       2B1u   -1.188402     3Ag    -0.643237     1B2u   -0.626611
       1B3u   -0.626611

    Singly Occupied:

       1B3g   -0.312454     1B2g   -0.312454

  @DF-ROHF Final Energy:  -149.44315836068353

   => Energetics <=

    Nuclear Repulsion Energy =             22.6851609857376708
    One-Electron Energy =                -250.7233387847180097
    Two-Electron Energy =                  78.5950194382968306
    Total Energy =                       -149.4431583606835261
    Molecular point group: d2h

    Geometry (in Angstrom), charge = 0, multiplicity = 3:

       Center              X                  Y                   Z               Mass
    ------------   -----------------  -----------------  -----------------  -----------------
           O          0.000000000000     0.000000000000    -0.746464646450    15.994914619560
           O          0.000000000000     0.000000000000     0.746464646450    15.994914619560

  Basis Set: 6-31G
    Blend: 6-31G
  Basis Set: (6-31G AUX)
    Blend: CC-PVDZ-JKFIT

  -Total Gradient:
     Atom            X                  Y                   Z
    ------   -----------------  -----------------  -----------------
       1       -0.000000000000     0.000000000000    -0.217864096237
       2        0.000000000000     0.000000000000     0.217864096237

*** Psi4 exiting successfully. Buy a developer a beer!
