                               Psi4 1.2a1.dev429

  ==> Input File <==

--------------------------------------------------------------------------
# density-fitted hartree fock energies and gradients with 6-31g
molecule h20 {
0 1
O 0.0000000000 0.0000000000 0.0000000000
O 0.0000000000 0.0000000000 1.4929292929
}

set basis 6-31g

gradient('hf')
--------------------------------------------------------------------------

    Molecular point group: d2h
  Charge       = 0
  Multiplicity = 1
  Basis Set: 6-31G
    Blend: 6-31G
  Basis Set: (6-31G AUX)
    Blend: CC-PVDZ-JKFIT

    Orbital Energies (a.u.)
    -----------------------

    Doubly Occupied:

       1Ag   -20.796077     1B1u  -20.795690     2Ag    -1.488429
       2B1u   -1.191966     1B3u   -0.706779     3Ag    -0.646797
       1B2g   -0.560315     1B2u   -0.555120

  @DF-RHF Final Energy:  -149.38078168111207

   => Energetics <=

    Nuclear Repulsion Energy =             22.6851609857376708
    One-Electron Energy =                -250.6495394677634181
    Two-Electron Energy =                  78.5835968009136963
    Total Energy =                       -149.3807816811120688
    Molecular point group: d2h

    Geometry (in Angstrom), charge = 0, multiplicity = 1:

       Center              X                  Y                   Z               Mass
    ------------   -----------------  -----------------  -----------------  -----------------
           O          0.000000000000     0.000000000000    -0.746464646450    15.994914619560
           O          0.000000000000     0.000000000000     0.746464646450    15.994914619560

  Basis Set: 6-31G
    Blend: 6-31G
  Basis Set: (6-31G AUX)
    Blend: CC-PVDZ-JKFIT

  -Total Gradient:
     Atom            X                  Y                   Z
    ------   -----------------  -----------------  -----------------
       1        0.000000000000     0.000000000000    -0.211311830628
       2        0.000000000000    -0.000000000000     0.211311830628

*** Psi4 exiting successfully. Buy a developer a beer!
