                               Psi4 1.2a1.dev429

  ==> Input File <==

--------------------------------------------------------------------------
# density-fitted hartree fock energies and gradients with 6-31g
molecule h2o {
0 1
O 0.0000000000 0.0000000000 0.0000000000
H 0.0000000000 0.0000000000 1.1000000000
H 0.0000000000 0.1389185421 -0.7878462024
}

set basis 6-31g

gradient('mp2')
--------------------------------------------------------------------------

    Molecular point group: cs
  Charge       = 0
  Multiplicity = 1
  Basis Set: 6-31G
    Blend: 6-31G
  Basis Set: (6-31G AUX)
    Blend: CC-PVDZ-JKFIT

    Orbital Energies (a.u.)
    -----------------------

    Doubly Occupied:

       1Ap   -20.500452     2Ap    -1.319706     3Ap    -0.766259
       4Ap    -0.467772     1App   -0.467048

  @DF-RHF Final Energy:   -75.89091287668070

   => Energetics <=

    Nuclear Repulsion Energy =              9.4198851311307550
    One-Electron Energy =                -123.5791210896013581
    Two-Electron Energy =                  38.2683230817899016
    Total Energy =                        -75.8909128766807015
  Basis Set: (6-31G AUX)
    Blend: CC-PVDZ-RI
    Molecular point group: cs

    Geometry (in Angstrom), charge = 0, multiplicity = 1:

       Center              X                  Y                   Z               Mass
    ------------   -----------------  -----------------  -----------------  -----------------
           O          0.007773525517     0.017467326350     0.000000000000    15.994914619560
           H          0.007773525517    -1.082532673650     0.000000000000     1.007825032070
           H         -0.131145016583     0.805313528750     0.000000000000     1.007825032070

  Basis Set: 6-31G
    Blend: 6-31G
  Basis Set: (6-31G AUX)
    Blend: CC-PVDZ-JKFIT
  Basis Set: (6-31G AUX)
    Blend: CC-PVDZ-JKFIT
	 Reference Energy          =     -75.8909128766807015 [Eh]
	 Singles Energy            =      -0.0000000000000000 [Eh]
	 Same-Spin Energy          =      -0.0300917384922991 [Eh]
	 Opposite-Spin Energy      =      -0.0945616908084292 [Eh]
	 Correlation Energy        =      -0.1246534293007282 [Eh]
	 Total Energy              =     -76.0155663059814231 [Eh]

	 ================> DF-SCS-MP2 Energies <==================
	-----------------------------------------------------------
	 SCS Same-Spin Scale       =       0.3333333333333333 [-]
	 SCS Opposite-Spin Scale   =       1.2000000000000000 [-]
	 SCS Same-Spin Energy      =      -0.0100305794974330 [Eh]
	 SCS Opposite-Spin Energy  =      -0.1134740289701150 [Eh]
	 SCS Correlation Energy    =      -0.1235046084675480 [Eh]
	 SCS Total Energy          =     -76.0144174851482433 [Eh]
	-----------------------------------------------------------

  -Total Gradient:
     Atom            X                  Y                   Z
    ------   -----------------  -----------------  -----------------
       1       -0.080693354324     0.407184200121    -0.000000000000
       2        0.012715598813    -0.122349239176    -0.000000000000
       3        0.067977755511    -0.284834960945     0.000000000000

*** Psi4 exiting successfully. Buy a developer a beer!
