                               Psi4 1.2a1.dev429

  ==> Input File <==

--------------------------------------------------------------------------
# density-fitted hartree fock energies and gradients with 6-31g
molecule h2o {
0 1
O 0.0000000000 0.0000000000 0.0000000000
H 0.0000000000 0.0000000000 1.4000000000
H 0.0000000000 0.6928203230 -0.4000000000
}

set basis 6-31g

gradient('mp2')
--------------------------------------------------------------------------

    Molecular point group: cs
  Charge       = 0
  Multiplicity = 1
  Basis Set: 6-31G
    Blend: 6-31G
  Basis Set: (6-31G AUX)
    Blend: CC-PVDZ-JKFIT

    Orbital Energies (a.u.)
    -----------------------

    Doubly Occupied:

       1Ap   -20.560948     2Ap    -1.345484     3Ap    -0.676861
       4Ap    -0.493804     1App   -0.490217

  @DF-RHF Final Energy:   -75.85341726549920

   => Energetics <=

    Nuclear Repulsion Energy =              8.5900074510607194
    One-Electron Energy =                -121.7522217402162710
    Two-Electron Energy =                  37.3087970236563535
    Total Energy =                        -75.8534172654992034
  Basis Set: (6-31G AUX)
    Blend: CC-PVDZ-RI
    Molecular point group: cs

    Geometry (in Angstrom), charge = 0, multiplicity = 1:

       Center              X                  Y                   Z               Mass
    ------------   -----------------  -----------------  -----------------  -----------------
           O          0.038768449325     0.055957436636     0.000000000000    15.994914619560
           H          0.038768449325    -1.344042563364     0.000000000000     1.007825032070
           H         -0.654051873675     0.455957436636     0.000000000000     1.007825032070

  Basis Set: 6-31G
    Blend: 6-31G
  Basis Set: (6-31G AUX)
    Blend: CC-PVDZ-JKFIT
  Basis Set: (6-31G AUX)
    Blend: CC-PVDZ-JKFIT
	 Reference Energy          =     -75.8534172654992034 [Eh]
	 Singles Energy            =      -0.0000000000000000 [Eh]
	 Same-Spin Energy          =      -0.0315612371766004 [Eh]
	 Opposite-Spin Energy      =      -0.1071101476466882 [Eh]
	 Correlation Energy        =      -0.1386713848232886 [Eh]
	 Total Energy              =     -75.9920886503224864 [Eh]

	 ================> DF-SCS-MP2 Energies <==================
	-----------------------------------------------------------
	 SCS Same-Spin Scale       =       0.3333333333333333 [-]
	 SCS Opposite-Spin Scale   =       1.2000000000000000 [-]
	 SCS Same-Spin Energy      =      -0.0105204123922001 [Eh]
	 SCS Opposite-Spin Energy  =      -0.1285321771760258 [Eh]
	 SCS Correlation Energy    =      -0.1390525895682260 [Eh]
	 SCS Total Energy          =     -75.9924698550674265 [Eh]
	-----------------------------------------------------------

  -Total Gradient:
     Atom            X                  Y                   Z
    ------   -----------------  -----------------  -----------------
       1       -0.315813304183     0.256762441591     0.000000000000
       2        0.016962296121    -0.118496886808    -0.000000000000
       3        0.298851008062    -0.138265554782     0.000000000000

*** Psi4 exiting successfully. Buy a developer a beer!
