                               Psi4 1.2a1.dev429

  ==> Input File <==

--------------------------------------------------------------------------
# density-fitted hartree fock energies and gradients with 6-31g
molecule o2 {
0 3
O 0.0000000000 0.0000000000 0.0000000000
O 0.0000000000 0.0000000000 0.9555555556
}

set basis 6-31g
set reference rohf

gradient('scf')
--------------------------------------------------------------------------

    Molecular point group: d2h
  Charge       = 0
  Multiplicity = 3
  Basis Set: 6-31G
    Blend: 6-31G
  Basis Set: (6-31G AUX)
    Blend: CC-PVDZ-JKFIT

    Orbital Energies (a.u.)
    -----------------------

    Doubly Occupied:

       1Ag   -20.708364     1B1u  -20.704791     2Ag    -1.999215
       2B1u   -1.001073     1B2u   -0.857266     1B3u   -0.857266
       3Ag    -0.795149

    Singly Occupied:

       1B3g   -0.093095     1B2g   -0.093095

  @DF-ROHF Final Energy:  -149.35084907945628

   => Energetics <=

    Nuclear Repulsion Energy =             35.4425665271701078
    One-Electron Energy =                -274.8923427637558348
    Two-Electron Energy =                  90.0989271571294523
    Total Energy =                       -149.3508490794562817
    Molecular point group: d2h

    Geometry (in Angstrom), charge = 0, multiplicity = 3:

       Center              X                  Y                   Z               Mass
    ------------   -----------------  -----------------  -----------------  -----------------
           O          0.000000000000     0.000000000000    -0.477777777800    15.994914619560
           O          0.000000000000     0.000000000000     0.477777777800    15.994914619560

  Basis Set: 6-31G
    Blend: 6-31G
  Basis Set: (6-31G AUX)
    Blend: CC-PVDZ-JKFIT

  -Total Gradient:
     Atom            X                  Y                   Z
    ------   -----------------  -----------------  -----------------
       1       -0.000000000000     0.000000000000     1.078172045685
       2        0.000000000000     0.000000000000    -1.078172045685

*** Psi4 exiting successfully. Buy a developer a beer!
