                               Psi4 1.2a1.dev429

  ==> Input File <==

--------------------------------------------------------------------------
# density-fitted hartree fock energies and gradients with 6-31g
molecule h2o {
0 1
O 0.0000000000 0.0000000000 0.0000000000
H 0.0000000000 0.0000000000 0.9000000000
H 0.0000000000 1.4772116295 -0.2604722665
}

set basis 6-31g

gradient('mp2')
--------------------------------------------------------------------------

    Molecular point group: cs
  Charge       = 0
  Multiplicity = 1
  Basis Set: 6-31G
    Blend: 6-31G
  Basis Set: (6-31G AUX)
    Blend: CC-PVDZ-JKFIT

    Orbital Energies (a.u.)
    -----------------------

    Doubly Occupied:

       1Ap   -20.598041     2Ap    -1.317788     3Ap    -0.641435
       1App   -0.502794     4Ap    -0.496196

  @DF-RHF Final Energy:   -75.86893918918838

   => Energetics <=

    Nuclear Repulsion Energy =              7.8077743507165067
    One-Electron Energy =                -120.2409172384597014
    Two-Electron Energy =                  36.5642036985548060
    Total Energy =                        -75.8689391891883957
  Basis Set: (6-31G AUX)
    Blend: CC-PVDZ-RI
    Molecular point group: cs

    Geometry (in Angstrom), charge = 0, multiplicity = 1:

       Center              X                  Y                   Z               Mass
    ------------   -----------------  -----------------  -----------------  -----------------
           O          0.082660976156     0.035786332624     0.000000000000    15.994914619560
           H          0.082660976156    -0.864213667376     0.000000000000     1.007825032070
           H         -1.394550653344     0.296258599124     0.000000000000     1.007825032070

  Basis Set: 6-31G
    Blend: 6-31G
  Basis Set: (6-31G AUX)
    Blend: CC-PVDZ-JKFIT
  Basis Set: (6-31G AUX)
    Blend: CC-PVDZ-JKFIT
	 Reference Energy          =     -75.8689391891883815 [Eh]
	 Singles Energy            =      -0.0000000000000000 [Eh]
	 Same-Spin Energy          =      -0.0334211494785126 [Eh]
	 Opposite-Spin Energy      =      -0.1168367499758145 [Eh]
	 Correlation Energy        =      -0.1502578994543271 [Eh]
	 Total Energy              =     -76.0191970886427129 [Eh]

	 ================> DF-SCS-MP2 Energies <==================
	-----------------------------------------------------------
	 SCS Same-Spin Scale       =       0.3333333333333333 [-]
	 SCS Opposite-Spin Scale   =       1.2000000000000000 [-]
	 SCS Same-Spin Energy      =      -0.0111403831595042 [Eh]
	 SCS Opposite-Spin Energy  =      -0.1402040999709774 [Eh]
	 SCS Correlation Energy    =      -0.1513444831304816 [Eh]
	 SCS Total Energy          =     -76.0202836723188682 [Eh]
	-----------------------------------------------------------

  -Total Gradient:
     Atom            X                  Y                   Z
    ------   -----------------  -----------------  -----------------
       1        0.097624697938    -0.129754418137    -0.000000000000
       2        0.003545264883     0.109755455035     0.000000000000
       3       -0.101169962821     0.019998963102    -0.000000000000

*** Psi4 exiting successfully. Buy a developer a beer!
