                               Psi4 1.3.1 release

  ==> Input File <==

--------------------------------------------------------------------------
# density fitted hartree fock
molecule h2o {
0 1
H 0.0000000000 0.0000000000 1.0000000000
H 0.0000000000 0.7912426863 -0.3105398707
O 0.0000000000 0.0000000000 0.0000000000
}

set basis 6-31g
energy('hf')

--------------------------------------------------------------------------

    Molecular point group: cs

    Geometry (in Angstrom), charge = 0, multiplicity = 1:

       Center              X                  Y                   Z               Mass
    ------------   -----------------  -----------------  -----------------  -----------------
         H            0.044275912489    -0.961419578496     0.000000000000     1.007825032230
         H           -0.746966773811     0.349120292204     0.000000000000     1.007825032230
         O            0.044275912489     0.038580421504     0.000000000000    15.994914619570

  Charge       = 0
  Multiplicity = 1
  Basis Set: 6-31G
    Blend: 6-31G
  Basis Set: (6-31G AUX)
    Blend: CC-PVDZ-JKFIT

    Orbital Energies [Eh]
    ---------------------

    Doubly Occupied:

       1Ap   -20.548500     2Ap    -1.372902     3Ap    -0.741472
       4Ap    -0.551131     1App   -0.500550

  @DF-RHF Final Energy:   -75.96933643387152

   => Energetics <=

    Nuclear Repulsion Energy =              9.5595787423490997
    One-Electron Energy =                -123.6287154810597286
    Two-Electron Energy =                  38.0998003048391070
    Total Energy =                        -75.9693364338715185

  Dipole Moment: [D]
     X:    -1.9952      Y:    -1.4951      Z:     0.0000     Total:     2.4932

*** Psi4 exiting successfully. Buy a developer a beer!
