                               Psi4 1.3.1 release

  ==> Input File <==

--------------------------------------------------------------------------
# density fitted MP2
molecule h2o {
0 1
H 0.0000000000 0.0000000000 1.1125000000
H 0.0000000000 1.0278159799 -0.4257353185
O 0.0000000000 0.0000000000 0.0000000000
}

set basis 6-31g
energy('mp2')

--------------------------------------------------------------------------

    Molecular point group: c2v

    Geometry (in Angstrom), charge = 0, multiplicity = 1:

       Center              X                  Y                   Z               Mass
    ------------   -----------------  -----------------  -----------------  -----------------
         H            0.000000000000    -0.925009943679     0.548900447622     1.007825032230
         H           -0.000000000000     0.925009943679     0.548900447622     1.007825032230
         O            0.000000000000     0.000000000000    -0.069171436606    15.994914619570

  Charge       = 0
  Multiplicity = 1
  Basis Set: 6-31G
    Blend: 6-31G
  Basis Set: (6-31G AUX)
    Blend: CC-PVDZ-JKFIT

    Orbital Energies [Eh]
    ---------------------

    Doubly Occupied:

       1A1   -20.582756     2A1    -1.281553     1B2    -0.641219
       3A1    -0.522969     1B1    -0.490845

  @DF-RHF Final Energy:   -75.94631580508258

   => Energetics <=

    Nuclear Repulsion Energy =              7.8966771961498639
    One-Electron Energy =                -120.6473021851138299
    Two-Electron Energy =                  36.8043091838813794
    Total Energy =                        -75.9463158050825768

  Dipole Moment: [D]
     X:     0.0000      Y:     0.0000      Z:     2.5116     Total:     2.5116

  Basis Set: (6-31G AUX)
    Blend: CC-PVDZ-RI
	 Reference Energy          =     -75.9463158050825768 [Eh]
	 Singles Energy            =      -0.0000000000000000 [Eh]
	 Same-Spin Energy          =      -0.0331329119031591 [Eh]
	 Opposite-Spin Energy      =      -0.1091510423957010 [Eh]
	 Correlation Energy        =      -0.1422839542988601 [Eh]
	 Total Energy              =     -76.0885997593814380 [Eh]

	 ================> DF-SCS-MP2 Energies <==================
	-----------------------------------------------------------
	 SCS Same-Spin Scale       =       0.3333333333333333 [-]
	 SCS Opposite-Spin Scale   =       1.2000000000000000 [-]
	 SCS Same-Spin Energy      =      -0.0110443039677197 [Eh]
	 SCS Opposite-Spin Energy  =      -0.1309812508748412 [Eh]
	 SCS Correlation Energy    =      -0.1420255548425609 [Eh]
	 SCS Total Energy          =     -76.0883413599251384 [Eh]
	-----------------------------------------------------------

*** Psi4 exiting successfully. Buy a developer a beer!
