                               Psi4 1.2a1.dev429

  ==> Input File <==

--------------------------------------------------------------------------
# density-fitted hartree fock energies and gradients with 6-31g
molecule h20 {
0 1
O 0.0000000000 0.0000000000 0.0000000000
H 0.0000000000 0.0000000000 1.0000000000
H 0.0000000000 0.6577848346 -0.2394141003
}

set basis 6-31g

gradient('hf')
--------------------------------------------------------------------------

    Molecular point group: cs
  Charge       = 0
  Multiplicity = 1
  Basis Set: 6-31G
    Blend: 6-31G
  Basis Set: (6-31G AUX)
    Blend: CC-PVDZ-JKFIT

    Orbital Energies (a.u.)
    -----------------------

    Doubly Occupied:

       1Ap   -20.536616     2Ap    -1.445402     3Ap    -0.784212
       4Ap    -0.563201     1App   -0.509322

  @DF-RHF Final Energy:   -75.85498800384437

   => Energetics <=

    Nuclear Repulsion Energy =             10.6582925263505484
    One-Electron Energy =                -125.3490557023108778
    Two-Electron Energy =                  38.8357751721159588
    Total Energy =                        -75.8549880038443689
    Molecular point group: cs

    Geometry (in Angstrom), charge = 0, multiplicity = 1:

       Center              X                  Y                   Z               Mass
    ------------   -----------------  -----------------  -----------------  -----------------
           O          0.036807953202     0.042560437289     0.000000000000    15.994914619560
           H          0.036807953202    -0.957439562711     0.000000000000     1.007825032070
           H         -0.620976881398     0.281974537589     0.000000000000     1.007825032070

  Basis Set: 6-31G
    Blend: 6-31G
  Basis Set: (6-31G AUX)
    Blend: CC-PVDZ-JKFIT

  -Total Gradient:
     Atom            X                  Y                   Z
    ------   -----------------  -----------------  -----------------
       1       -0.680352946781     0.315512154785     0.000000000000
       2       -0.008722549734    -0.051448695174     0.000000000000
       3        0.689075496515    -0.264063459611     0.000000000000

*** Psi4 exiting successfully. Buy a developer a beer!
