                               Psi4 1.3.1 release

  ==> Input File <==

--------------------------------------------------------------------------
# density fitted MP2
molecule h2o {
0 1
H 0.0000000000 0.0000000000 0.9375000000
H 0.0000000000 0.9375000000 0.0000000000
O 0.0000000000 0.0000000000 0.0000000000
}

set basis 6-31g
energy('mp2')

--------------------------------------------------------------------------

    Molecular point group: c2v

    Geometry (in Angstrom), charge = 0, multiplicity = 1:

       Center              X                  Y                   Z               Mass
    ------------   -----------------  -----------------  -----------------  -----------------
         H            0.000000000000    -0.662912607362     0.588722826908     1.007825032230
         H           -0.000000000000     0.662912607362     0.588722826908     1.007825032230
         O            0.000000000000     0.000000000000    -0.074189780454    15.994914619570

  Charge       = 0
  Multiplicity = 1
  Basis Set: 6-31G
    Blend: 6-31G
  Basis Set: (6-31G AUX)
    Blend: CC-PVDZ-JKFIT

    Orbital Energies [Eh]
    ---------------------

    Doubly Occupied:

       1A1   -20.565869     2A1    -1.385327     1B2    -0.691592
       3A1    -0.592462     1B1    -0.508946

  @DF-RHF Final Energy:   -75.97019871433253

   => Energetics <=

    Nuclear Repulsion Energy =              9.4304215091564156
    One-Electron Energy =                -123.3128473621344341
    Two-Electron Energy =                  37.9122271386454912
    Total Energy =                        -75.9701987143325255

  Dipole Moment: [D]
     X:     0.0000      Y:     0.0000      Z:     2.8444     Total:     2.8444

  Basis Set: (6-31G AUX)
    Blend: CC-PVDZ-RI
	 Reference Energy          =     -75.9701987143325255 [Eh]
	 Singles Energy            =      -0.0000000000000000 [Eh]
	 Same-Spin Energy          =      -0.0297886316733064 [Eh]
	 Opposite-Spin Energy      =      -0.0984291407046793 [Eh]
	 Correlation Energy        =      -0.1282177723779857 [Eh]
	 Total Energy              =     -76.0984164867105051 [Eh]

	 ================> DF-SCS-MP2 Energies <==================
	-----------------------------------------------------------
	 SCS Same-Spin Scale       =       0.3333333333333333 [-]
	 SCS Opposite-Spin Scale   =       1.2000000000000000 [-]
	 SCS Same-Spin Energy      =      -0.0099295438911021 [Eh]
	 SCS Opposite-Spin Energy  =      -0.1181149688456152 [Eh]
	 SCS Correlation Energy    =      -0.1280445127367173 [Eh]
	 SCS Total Energy          =     -76.0982432270692470 [Eh]
	-----------------------------------------------------------

*** Psi4 exiting successfully. Buy a developer a beer!
