                               Psi4 1.2a1.dev429

  ==> Input File <==

--------------------------------------------------------------------------
# density-fitted hartree fock energies and gradients with 6-31g
molecule h20 {
0 1
O 0.0000000000 0.0000000000 0.0000000000
H 0.0000000000 0.0000000000 0.7000000000
H 0.0000000000 0.9958577761 -0.8356238926
}

set basis 6-31g

gradient('hf')
--------------------------------------------------------------------------

    Molecular point group: cs
  Charge       = 0
  Multiplicity = 1
  Basis Set: 6-31G
    Blend: 6-31G
  Basis Set: (6-31G AUX)
    Blend: CC-PVDZ-JKFIT

    Orbital Energies (a.u.)
    -----------------------

    Doubly Occupied:

       1Ap   -20.535197     2Ap    -1.392233     3Ap    -0.721694
       4Ap    -0.497464     1App   -0.487935

  @DF-RHF Final Energy:   -75.77881831909879

   => Energetics <=

    Nuclear Repulsion Energy =              9.5933405118435662
    One-Electron Energy =                -123.4752720180105143
    Two-Electron Energy =                  38.1031131870681605
    Total Energy =                        -75.7788183190987894
    Molecular point group: cs

    Geometry (in Angstrom), charge = 0, multiplicity = 1:

       Center              X                  Y                   Z               Mass
    ------------   -----------------  -----------------  -----------------  -----------------
           O          0.055725648405    -0.007589165377     0.000000000000    15.994914619560
           H          0.055725648405    -0.707589165377     0.000000000000     1.007825032070
           H         -0.940132127695     0.828034727223     0.000000000000     1.007825032070

  Basis Set: 6-31G
    Blend: 6-31G
  Basis Set: (6-31G AUX)
    Blend: CC-PVDZ-JKFIT

  -Total Gradient:
     Atom            X                  Y                   Z
    ------   -----------------  -----------------  -----------------
       1        0.060709482138    -0.852988616758     0.000000000000
       2        0.040546150014     0.739524694813     0.000000000000
       3       -0.101255632151     0.113463921945     0.000000000000

*** Psi4 exiting successfully. Buy a developer a beer!
