                               Psi4 1.2a1.dev429

  ==> Input File <==

--------------------------------------------------------------------------
# density-fitted hartree fock energies and gradients with 6-31g
molecule h2o {
0 1
O 0.0000000000 0.0000000000 0.0000000000
H 0.0000000000 0.0000000000 0.8000000000
H 0.0000000000 1.3155696691 -0.4788282007
}

set basis 6-31g

gradient('mp2')
--------------------------------------------------------------------------

    Molecular point group: cs
  Charge       = 0
  Multiplicity = 1
  Basis Set: 6-31G
    Blend: 6-31G
  Basis Set: (6-31G AUX)
    Blend: CC-PVDZ-JKFIT

    Orbital Energies (a.u.)
    -----------------------

    Doubly Occupied:

       1Ap   -20.572015     2Ap    -1.355757     3Ap    -0.674432
       4Ap    -0.506371     1App   -0.497999

  @DF-RHF Final Energy:   -75.85886573461576

   => Energetics <=

    Nuclear Repulsion Energy =              8.6040689095420824
    One-Electron Energy =                -121.7127221830680668
    Two-Electron Energy =                  37.2497875389102333
    Total Energy =                        -75.8588657346157618
  Basis Set: (6-31G AUX)
    Blend: CC-PVDZ-RI
    Molecular point group: cs

    Geometry (in Angstrom), charge = 0, multiplicity = 1:

       Center              X                  Y                   Z               Mass
    ------------   -----------------  -----------------  -----------------  -----------------
           O          0.073615906399     0.017971950609     0.000000000000    15.994914619560
           H          0.073615906399    -0.782028049391     0.000000000000     1.007825032070
           H         -1.241953762701     0.496800151309     0.000000000000     1.007825032070

  Basis Set: 6-31G
    Blend: 6-31G
  Basis Set: (6-31G AUX)
    Blend: CC-PVDZ-JKFIT
  Basis Set: (6-31G AUX)
    Blend: CC-PVDZ-JKFIT
	 Reference Energy          =     -75.8588657346157618 [Eh]
	 Singles Energy            =      -0.0000000000000000 [Eh]
	 Same-Spin Energy          =      -0.0314363419121521 [Eh]
	 Opposite-Spin Energy      =      -0.1076993926687759 [Eh]
	 Correlation Energy        =      -0.1391357345809280 [Eh]
	 Total Energy              =     -75.9980014691966943 [Eh]

	 ================> DF-SCS-MP2 Energies <==================
	-----------------------------------------------------------
	 SCS Same-Spin Scale       =       0.3333333333333333 [-]
	 SCS Opposite-Spin Scale   =       1.2000000000000000 [-]
	 SCS Same-Spin Energy      =      -0.0104787806373840 [Eh]
	 SCS Opposite-Spin Energy  =      -0.1292392712025310 [Eh]
	 SCS Correlation Energy    =      -0.1397180518399151 [Eh]
	 SCS Total Energy          =     -75.9985837864556828 [Eh]
	-----------------------------------------------------------

  -Total Gradient:
     Atom            X                  Y                   Z
    ------   -----------------  -----------------  -----------------
       1        0.090202804053    -0.378684253923    -0.000000000000
       2        0.014722360103     0.331541929198     0.000000000000
       3       -0.104925164156     0.047142324725    -0.000000000000

*** Psi4 exiting successfully. Buy a developer a beer!
