                               Psi4 1.2a1.dev429

  ==> Input File <==

--------------------------------------------------------------------------
# density-fitted hartree fock energies and gradients with 6-31g
molecule h20 {
0 1
O 0.0000000000 0.0000000000 0.0000000000
O 0.0000000000 0.0000000000 0.8212121212
}

set basis 6-31g

gradient('hf')
--------------------------------------------------------------------------

    Molecular point group: d2h
  Charge       = 0
  Multiplicity = 1
  Basis Set: 6-31G
    Blend: 6-31G
  Basis Set: (6-31G AUX)
    Blend: CC-PVDZ-JKFIT

    Orbital Energies (a.u.)
    -----------------------

    Doubly Occupied:

       1Ag   -20.734099     1B1u  -20.722180     2Ag    -2.213845
       1B3u   -1.031705     2B1u   -0.954963     1B2u   -0.952144
       3Ag    -0.841720     1B2g   -0.247599

  @DF-RHF Final Energy:  -148.79830446372347

   => Energetics <=

    Nuclear Repulsion Energy =             41.2406739689511568
    One-Electron Energy =                -284.6814474726510866
    Two-Electron Energy =                  94.6424690399764472
    Total Energy =                       -148.7983044637234684
    Molecular point group: d2h

    Geometry (in Angstrom), charge = 0, multiplicity = 1:

       Center              X                  Y                   Z               Mass
    ------------   -----------------  -----------------  -----------------  -----------------
           O          0.000000000000     0.000000000000    -0.410606060600    15.994914619560
           O          0.000000000000     0.000000000000     0.410606060600    15.994914619560

  Basis Set: 6-31G
    Blend: 6-31G
  Basis Set: (6-31G AUX)
    Blend: CC-PVDZ-JKFIT

  -Total Gradient:
     Atom            X                  Y                   Z
    ------   -----------------  -----------------  -----------------
       1       -0.000000000000     0.000000000000     2.989361628665
       2        0.000000000000     0.000000000000    -2.989361628665

*** Psi4 exiting successfully. Buy a developer a beer!
