                               Psi4 1.2a1.dev429

  ==> Input File <==

--------------------------------------------------------------------------
# density-fitted hartree fock energies and gradients with 6-31g
molecule h20 {
0 1
O 0.0000000000 0.0000000000 0.0000000000
H 0.0000000000 0.0000000000 1.1000000000
H 0.0000000000 0.4788282007 -1.3155696691
}

set basis 6-31g

gradient('hf')
--------------------------------------------------------------------------

    Molecular point group: cs
  Charge       = 0
  Multiplicity = 1
  Basis Set: 6-31G
    Blend: 6-31G
  Basis Set: (6-31G AUX)
    Blend: CC-PVDZ-JKFIT

    Orbital Energies (a.u.)
    -----------------------

    Doubly Occupied:

       1Ap   -20.526475     2Ap    -1.197615     3Ap    -0.591566
       1App   -0.436990     4Ap    -0.429643

  @DF-RHF Final Energy:   -75.82408953730561

   => Energetics <=

    Nuclear Repulsion Energy =              7.0873194295967323
    One-Electron Energy =                -119.4582387472793670
    Two-Electron Energy =                  36.5468297803770170
    Total Energy =                        -75.8240895373056105
    Molecular point group: cs

    Geometry (in Angstrom), charge = 0, multiplicity = 1:

       Center              X                  Y                   Z               Mass
    ------------   -----------------  -----------------  -----------------  -----------------
           O          0.026793998700    -0.012062726099     0.000000000000    15.994914619560
           H          0.026793998700    -1.112062726099     0.000000000000     1.007825032070
           H         -0.452034202000     1.303506943001     0.000000000000     1.007825032070

  Basis Set: 6-31G
    Blend: 6-31G
  Basis Set: (6-31G AUX)
    Blend: CC-PVDZ-JKFIT

  -Total Gradient:
     Atom            X                  Y                   Z
    ------   -----------------  -----------------  -----------------
       1       -0.009318024879    -0.042133087009     0.000000000000
       2        0.033838904406    -0.102974742989     0.000000000000
       3       -0.024520879528     0.145107829998     0.000000000000

*** Psi4 exiting successfully. Buy a developer a beer!
