                               Psi4 1.2a1.dev429

  ==> Input File <==

--------------------------------------------------------------------------
# density-fitted hartree fock energies and gradients with 6-31g
molecule h20 {
0 1
O 0.0000000000 0.0000000000 0.0000000000
H 0.0000000000 0.0000000000 0.7000000000
H 0.0000000000 0.9526279442 -0.5500000000
}

set basis 6-31g

gradient('hf')
--------------------------------------------------------------------------

    Molecular point group: cs
  Charge       = 0
  Multiplicity = 1
  Basis Set: 6-31G
    Blend: 6-31G
  Basis Set: (6-31G AUX)
    Blend: CC-PVDZ-JKFIT

    Orbital Energies (a.u.)
    -----------------------

    Doubly Occupied:

       1Ap   -20.536186     2Ap    -1.419081     3Ap    -0.767632
       4Ap    -0.535559     1App   -0.501035

  @DF-RHF Final Energy:   -75.83801459593836

   => Energetics <=

    Nuclear Repulsion Energy =             10.2330084383836262
    One-Electron Energy =                -124.6230582986077451
    Two-Electron Energy =                  38.5520352642857631
    Total Energy =                        -75.8380145959383611
    Molecular point group: cs

    Geometry (in Angstrom), charge = 0, multiplicity = 1:

       Center              X                  Y                   Z               Mass
    ------------   -----------------  -----------------  -----------------  -----------------
           O          0.053306617825     0.008393615495     0.000000000000    15.994914619560
           H          0.053306617825    -0.691606384505     0.000000000000     1.007825032070
           H         -0.899321326375     0.558393615495     0.000000000000     1.007825032070

  Basis Set: 6-31G
    Blend: 6-31G
  Basis Set: (6-31G AUX)
    Blend: CC-PVDZ-JKFIT

  -Total Gradient:
     Atom            X                  Y                   Z
    ------   -----------------  -----------------  -----------------
       1        0.078866545517    -0.802743935155     0.000000000000
       2        0.015805620490     0.736470817180     0.000000000000
       3       -0.094672166006     0.066273117974     0.000000000000

*** Psi4 exiting successfully. Buy a developer a beer!
