                               Psi4 1.2a1.dev429

  ==> Input File <==

--------------------------------------------------------------------------
# density-fitted hartree fock energies and gradients with 6-31g
molecule h2o {
0 1
O 0.0000000000 0.0000000000 0.0000000000
H 0.0000000000 0.0000000000 1.3000000000
H 0.0000000000 0.6128355545 -0.5142300877
}

set basis 6-31g

gradient('mp2')
--------------------------------------------------------------------------

    Molecular point group: cs
  Charge       = 0
  Multiplicity = 1
  Basis Set: 6-31G
    Blend: 6-31G
  Basis Set: (6-31G AUX)
    Blend: CC-PVDZ-JKFIT

    Orbital Energies (a.u.)
    -----------------------

    Doubly Occupied:

       1Ap   -20.544188     2Ap    -1.338654     3Ap    -0.696391
       4Ap    -0.491971     1App   -0.482903

  @DF-RHF Final Energy:   -75.87191970665023

   => Energetics <=

    Nuclear Repulsion Energy =              8.8245885061288423
    One-Electron Energy =                -122.2848047724410776
    Two-Electron Energy =                  37.5882965596619982
    Total Energy =                        -75.8719197066502318
  Basis Set: (6-31G AUX)
    Blend: CC-PVDZ-RI
    Molecular point group: cs

    Geometry (in Angstrom), charge = 0, multiplicity = 1:

       Center              X                  Y                   Z               Mass
    ------------   -----------------  -----------------  -----------------  -----------------
           O          0.034292706709     0.043969670078     0.000000000000    15.994914619560
           H          0.034292706709    -1.256030329922     0.000000000000     1.007825032070
           H         -0.578542847791     0.558199757778     0.000000000000     1.007825032070

  Basis Set: 6-31G
    Blend: 6-31G
  Basis Set: (6-31G AUX)
    Blend: CC-PVDZ-JKFIT
  Basis Set: (6-31G AUX)
    Blend: CC-PVDZ-JKFIT
	 Reference Energy          =     -75.8719197066502318 [Eh]
	 Singles Energy            =      -0.0000000000000000 [Eh]
	 Same-Spin Energy          =      -0.0312291903046281 [Eh]
	 Opposite-Spin Energy      =      -0.1029288902827426 [Eh]
	 Correlation Energy        =      -0.1341580805873706 [Eh]
	 Total Energy              =     -76.0060777872376008 [Eh]

	 ================> DF-SCS-MP2 Energies <==================
	-----------------------------------------------------------
	 SCS Same-Spin Scale       =       0.3333333333333333 [-]
	 SCS Opposite-Spin Scale   =       1.2000000000000000 [-]
	 SCS Same-Spin Energy      =      -0.0104097301015427 [Eh]
	 SCS Opposite-Spin Energy  =      -0.1235146683392911 [Eh]
	 SCS Correlation Energy    =      -0.1339243984408338 [Eh]
	 SCS Total Energy          =     -76.0058441050910716 [Eh]
	-----------------------------------------------------------

  -Total Gradient:
     Atom            X                  Y                   Z
    ------   -----------------  -----------------  -----------------
       1       -0.294502913960     0.301962022965     0.000000000000
       2        0.024035467949    -0.125999012361     0.000000000000
       3        0.270467446011    -0.175963010604    -0.000000000000

*** Psi4 exiting successfully. Buy a developer a beer!
