                               Psi4 1.2a1.dev429

  ==> Input File <==

--------------------------------------------------------------------------
# density-fitted hartree fock energies and gradients with 6-31g
molecule h2o {
0 1
O 0.0000000000 0.0000000000 0.0000000000
H 0.0000000000 0.0000000000 1.3000000000
H 0.0000000000 0.9526279442 -0.5500000000
}

set basis 6-31g

gradient('mp2')
--------------------------------------------------------------------------

    Molecular point group: cs
  Charge       = 0
  Multiplicity = 1
  Basis Set: 6-31G
    Blend: 6-31G
  Basis Set: (6-31G AUX)
    Blend: CC-PVDZ-JKFIT

    Orbital Energies (a.u.)
    -----------------------

    Doubly Occupied:

       1Ap   -20.587878     2Ap    -1.254573     3Ap    -0.613128
       4Ap    -0.494749     1App   -0.484485

  @DF-RHF Final Energy:   -75.89985467619444

   => Energetics <=

    Nuclear Repulsion Energy =              7.3593429839765996
    One-Electron Energy =                -119.6487698566443214
    Two-Electron Energy =                  36.3895721964732815
    Total Energy =                        -75.8998546761944368
  Basis Set: (6-31G AUX)
    Blend: CC-PVDZ-RI
    Molecular point group: cs

    Geometry (in Angstrom), charge = 0, multiplicity = 1:

       Center              X                  Y                   Z               Mass
    ------------   -----------------  -----------------  -----------------  -----------------
           O          0.053306617825     0.041968077477     0.000000000000    15.994914619560
           H          0.053306617825    -1.258031922523     0.000000000000     1.007825032070
           H         -0.899321326375     0.591968077477     0.000000000000     1.007825032070

  Basis Set: 6-31G
    Blend: 6-31G
  Basis Set: (6-31G AUX)
    Blend: CC-PVDZ-JKFIT
  Basis Set: (6-31G AUX)
    Blend: CC-PVDZ-JKFIT
	 Reference Energy          =     -75.8998546761944368 [Eh]
	 Singles Energy            =      -0.0000000000000000 [Eh]
	 Same-Spin Energy          =      -0.0344108410911903 [Eh]
	 Opposite-Spin Energy      =      -0.1149981514891206 [Eh]
	 Correlation Energy        =      -0.1494089925803109 [Eh]
	 Total Energy              =     -76.0492636687747421 [Eh]

	 ================> DF-SCS-MP2 Energies <==================
	-----------------------------------------------------------
	 SCS Same-Spin Scale       =       0.3333333333333333 [-]
	 SCS Opposite-Spin Scale   =       1.2000000000000000 [-]
	 SCS Same-Spin Energy      =      -0.0114702803637301 [Eh]
	 SCS Opposite-Spin Energy  =      -0.1379977817869447 [Eh]
	 SCS Correlation Energy    =      -0.1494680621506748 [Eh]
	 SCS Total Energy          =     -76.0493227383451114 [Eh]
	-----------------------------------------------------------

  -Total Gradient:
     Atom            X                  Y                   Z
    ------   -----------------  -----------------  -----------------
       1        0.028727569663     0.052024675785     0.000000000000
       2        0.021753850689    -0.110856447524    -0.000000000000
       3       -0.050481420352     0.058831771739     0.000000000000

*** Psi4 exiting successfully. Buy a developer a beer!
