                               Psi4 1.2a1.dev429

  ==> Input File <==

--------------------------------------------------------------------------
# density-fitted hartree fock energies and gradients with 6-31g
molecule h20 {
0 1
O 0.0000000000 0.0000000000 0.0000000000
H 0.0000000000 0.0000000000 0.7000000000
H 0.0000000000 1.1258330249 -0.6500000000
}

set basis 6-31g

gradient('hf')
--------------------------------------------------------------------------

    Molecular point group: cs
  Charge       = 0
  Multiplicity = 1
  Basis Set: 6-31G
    Blend: 6-31G
  Basis Set: (6-31G AUX)
    Blend: CC-PVDZ-JKFIT

    Orbital Energies (a.u.)
    -----------------------

    Doubly Occupied:

       1Ap   -20.546885     2Ap    -1.404068     3Ap    -0.717378
       4Ap    -0.511987     1App   -0.495818

  @DF-RHF Final Energy:   -75.78667767510812

   => Energetics <=

    Nuclear Repulsion Energy =              9.6052530526071376
    One-Electron Energy =                -123.4315894313252073
    Two-Electron Energy =                  38.0396587036099305
    Total Energy =                        -75.7866776751081375
    Molecular point group: cs

    Geometry (in Angstrom), charge = 0, multiplicity = 1:

       Center              X                  Y                   Z               Mass
    ------------   -----------------  -----------------  -----------------  -----------------
           O          0.062998730154     0.002797871832     0.000000000000    15.994914619560
           H          0.062998730154    -0.697202128168     0.000000000000     1.007825032070
           H         -1.062834294746     0.652797871832     0.000000000000     1.007825032070

  Basis Set: 6-31G
    Blend: 6-31G
  Basis Set: (6-31G AUX)
    Blend: CC-PVDZ-JKFIT

  -Total Gradient:
     Atom            X                  Y                   Z
    ------   -----------------  -----------------  -----------------
       1        0.092138934676    -0.827746493680     0.000000000000
       2        0.026610060203     0.742641610286     0.000000000000
       3       -0.118748994880     0.085104883394     0.000000000000

*** Psi4 exiting successfully. Buy a developer a beer!
