                               Psi4 1.2.1 release

  ==> Input File <==

--------------------------------------------------------------------------
# density fitted hartree fock
molecule h2o {
0 1
H 0.0000000000 0.0000000000 1.2000000000
H 0.0000000000 1.0278159799 -0.4257353185
O 0.0000000000 0.0000000000 0.0000000000
}

set basis 6-31g
energy('hf')

--------------------------------------------------------------------------

    Molecular point group: cs

    Geometry (in Angstrom), charge = 0, multiplicity = 1:

       Center              X                  Y                   Z               Mass
    ------------   -----------------  -----------------  -----------------  -----------------
         H            0.057513947569    -1.156674133145     0.000000000000     1.007825032070
         H           -0.970302032331     0.469061185355     0.000000000000     1.007825032070
         O            0.057513947569     0.043325866855     0.000000000000    15.994914619560

  Charge       = 0
  Multiplicity = 1
  Basis Set: 6-31G
    Blend: 6-31G
  Basis Set: (6-31G AUX)
    Blend: CC-PVDZ-JKFIT

    Orbital Energies [Eh]
    ---------------------

    Doubly Occupied:

       1Ap   -20.590150     2Ap    -1.269150     3Ap    -0.622634
       4Ap    -0.516051     1App   -0.490316

  @DF-RHF Final Energy:   -75.92707383343826

   => Energetics <=

    Nuclear Repulsion Energy =              7.6082949682214371
    One-Electron Energy =                -120.0941311107096254
    Two-Electron Energy =                  36.5587623090499250
    Total Energy =                        -75.9270738334382571

  Dipole Moment: [D]
     X:    -2.0680      Y:    -1.4105      Z:     0.0000     Total:     2.5032

*** Psi4 exiting successfully. Buy a developer a beer!
