                               Psi4 1.2a1.dev429

  ==> Input File <==

--------------------------------------------------------------------------
# density-fitted hartree fock energies and gradients with 6-31g
molecule h20 {
0 1
O 0.0000000000 0.0000000000 0.0000000000
H 0.0000000000 0.0000000000 0.9000000000
H 0.0000000000 1.0832885283 -0.1910129954
}

set basis 6-31g

gradient('hf')
--------------------------------------------------------------------------

    Molecular point group: cs
  Charge       = 0
  Multiplicity = 1
  Basis Set: 6-31G
    Blend: 6-31G
  Basis Set: (6-31G AUX)
    Blend: CC-PVDZ-JKFIT

    Orbital Energies (a.u.)
    -----------------------

    Doubly Occupied:

       1Ap   -20.571380     2Ap    -1.349308     3Ap    -0.683318
       4Ap    -0.559448     1App   -0.502514

  @DF-RHF Final Energy:   -75.96283091571935

   => Energetics <=

    Nuclear Repulsion Energy =              8.8965452572100823
    One-Electron Energy =                -122.3868166793329237
    Two-Electron Energy =                  37.5274405064035008
    Total Energy =                        -75.9628309157193371
    Molecular point group: cs

    Geometry (in Angstrom), charge = 0, multiplicity = 1:

       Center              X                  Y                   Z               Mass
    ------------   -----------------  -----------------  -----------------  -----------------
           O          0.060618049181     0.039673095386     0.000000000000    15.994914619560
           H          0.060618049181    -0.860326904614     0.000000000000     1.007825032070
           H         -1.022670479119     0.230686090786     0.000000000000     1.007825032070

  Basis Set: 6-31G
    Blend: 6-31G
  Basis Set: (6-31G AUX)
    Blend: CC-PVDZ-JKFIT

  -Total Gradient:
     Atom            X                  Y                   Z
    ------   -----------------  -----------------  -----------------
       1        0.113476831062    -0.077859271405     0.000000000000
       2       -0.017352297487     0.075326272972     0.000000000000
       3       -0.096124533575     0.002532998433     0.000000000000

*** Psi4 exiting successfully. Buy a developer a beer!
