                               Psi4 1.2a1.dev429

  ==> Input File <==

--------------------------------------------------------------------------
# density-fitted hartree fock energies and gradients with 6-31g
molecule h20 {
0 1
O 0.0000000000 0.0000000000 0.0000000000
O 0.0000000000 0.0000000000 1.2030303030
}

set basis 6-31g

gradient('hf')
--------------------------------------------------------------------------

    Molecular point group: d2h
  Charge       = 0
  Multiplicity = 1
  Basis Set: 6-31G
    Blend: 6-31G
  Basis Set: (6-31G AUX)
    Blend: CC-PVDZ-JKFIT

    Orbital Energies (a.u.)
    -----------------------

    Doubly Occupied:

       1Ag   -20.756952     1B1u  -20.756094     2Ag    -1.699470
       2B1u   -1.103467     1B2u   -0.785133     3Ag    -0.729231
       1B3u   -0.659466     1B3g   -0.486200

  @DF-RHF Final Energy:  -149.46142463710203

   => Energetics <=

    Nuclear Repulsion Energy =             28.1516943216682982
    One-Electron Energy =                -261.2742124053306725
    Two-Electron Energy =                  83.6610934465603435
    Total Energy =                       -149.4614246371020272
    Molecular point group: d2h

    Geometry (in Angstrom), charge = 0, multiplicity = 1:

       Center              X                  Y                   Z               Mass
    ------------   -----------------  -----------------  -----------------  -----------------
           O          0.000000000000     0.000000000000    -0.601515151500    15.994914619560
           O          0.000000000000     0.000000000000     0.601515151500    15.994914619560

  Basis Set: 6-31G
    Blend: 6-31G
  Basis Set: (6-31G AUX)
    Blend: CC-PVDZ-JKFIT

  -Total Gradient:
     Atom            X                  Y                   Z
    ------   -----------------  -----------------  -----------------
       1        0.000000000000    -0.000000000000    -0.016590423958
       2        0.000000000000     0.000000000000     0.016590423958

*** Psi4 exiting successfully. Buy a developer a beer!
