                               Psi4 1.3.1 release

  ==> Input File <==

--------------------------------------------------------------------------
# density fitted hartree fock
molecule h2o {
0 1
H 0.0000000000 0.0000000000 0.9500000000
H 0.0000000000 0.9000000000 0.0000000000
O 0.0000000000 0.0000000000 0.0000000000
}

set basis 6-31g
energy('hf')

--------------------------------------------------------------------------

    Molecular point group: cs

    Geometry (in Angstrom), charge = 0, multiplicity = 1:

       Center              X                  Y                   Z               Mass
    ------------   -----------------  -----------------  -----------------  -----------------
         H            0.050361692980    -0.896840435188     0.000000000000     1.007825032230
         H           -0.849638307020     0.053159564812     0.000000000000     1.007825032230
         O            0.050361692980     0.053159564812     0.000000000000    15.994914619570

  Charge       = 0
  Multiplicity = 1
  Basis Set: 6-31G
    Blend: 6-31G
  Basis Set: (6-31G AUX)
    Blend: CC-PVDZ-JKFIT

    Orbital Energies [Eh]
    ---------------------

    Doubly Occupied:

       1Ap   -20.563141     2Ap    -1.393745     3Ap    -0.698242
       4Ap    -0.594113     1App   -0.509621

  @DF-RHF Final Energy:   -75.96680620613813

   => Energetics <=

    Nuclear Repulsion Energy =              9.5644030089227101
    One-Electron Energy =                -123.5447046759159520
    Two-Electron Energy =                  38.0134954608551041
    Total Energy =                        -75.9668062061381306

  Dipole Moment: [D]
     X:    -2.0055      Y:    -2.0081      Z:     0.0000     Total:     2.8381

*** Psi4 exiting successfully. Buy a developer a beer!
