                               Psi4 1.2a1.dev429

  ==> Input File <==

--------------------------------------------------------------------------
# density-fitted hartree fock energies and gradients with 6-31g
molecule h20 {
0 1
O 0.0000000000 0.0000000000 0.0000000000
O 0.0000000000 0.0000000000 1.0828282828
}

set basis 6-31g

gradient('hf')
--------------------------------------------------------------------------

    Molecular point group: d2h
  Charge       = 0
  Multiplicity = 1
  Basis Set: 6-31G
    Blend: 6-31G
  Basis Set: (6-31G AUX)
    Blend: CC-PVDZ-JKFIT

    Orbital Energies (a.u.)
    -----------------------

    Doubly Occupied:

       1Ag   -20.736170     1B1u  -20.734630     2Ag    -1.833456
       2B1u   -1.056926     1B2u   -0.836451     3Ag    -0.764109
       1B3u   -0.722956     1B3g   -0.433168

  @DF-RHF Final Energy:  -149.43434236354179

   => Energetics <=

    Nuclear Repulsion Energy =             31.2767424786736399
    One-Electron Energy =                -267.1864384725246850
    Two-Electron Energy =                  86.4753536303092716
    Total Energy =                       -149.4343423635417594
    Molecular point group: d2h

    Geometry (in Angstrom), charge = 0, multiplicity = 1:

       Center              X                  Y                   Z               Mass
    ------------   -----------------  -----------------  -----------------  -----------------
           O          0.000000000000     0.000000000000    -0.541414141400    15.994914619560
           O          0.000000000000     0.000000000000     0.541414141400    15.994914619560

  Basis Set: 6-31G
    Blend: 6-31G
  Basis Set: (6-31G AUX)
    Blend: CC-PVDZ-JKFIT

  -Total Gradient:
     Atom            X                  Y                   Z
    ------   -----------------  -----------------  -----------------
       1       -0.000000000000     0.000000000000     0.299572940838
       2        0.000000000000     0.000000000000    -0.299572940838

*** Psi4 exiting successfully. Buy a developer a beer!
