                               Psi4 1.2a1.dev429

  ==> Input File <==

--------------------------------------------------------------------------
# density-fitted hartree fock energies and gradients with 6-31g
molecule h2o {
0 1
O 0.0000000000 0.0000000000 0.0000000000
H 0.0000000000 0.0000000000 0.9000000000
H 0.0000000000 0.5500000000 -0.9526279442
}

set basis 6-31g

gradient('mp2')
--------------------------------------------------------------------------

    Molecular point group: cs
  Charge       = 0
  Multiplicity = 1
  Basis Set: 6-31G
    Blend: 6-31G
  Basis Set: (6-31G AUX)
    Blend: CC-PVDZ-JKFIT

    Orbital Energies (a.u.)
    -----------------------

    Doubly Occupied:

       1Ap   -20.521820     2Ap    -1.296004     3Ap    -0.729553
       4Ap    -0.476522     1App   -0.469740

  @DF-RHF Final Energy:   -75.93469298509621

   => Energetics <=

    Nuclear Repulsion Energy =              8.8261829254686024
    One-Electron Energy =                -122.5344759247413435
    Two-Electron Energy =                  37.7736000141765373
    Total Energy =                        -75.9346929850962056
  Basis Set: (6-31G AUX)
    Blend: CC-PVDZ-RI
    Molecular point group: cs

    Geometry (in Angstrom), charge = 0, multiplicity = 1:

       Center              X                  Y                   Z               Mass
    ------------   -----------------  -----------------  -----------------  -----------------
           O          0.030776590150    -0.002944924853     0.000000000000    15.994914619560
           H          0.030776590150    -0.902944924853     0.000000000000     1.007825032070
           H         -0.519223409850     0.949683019347     0.000000000000     1.007825032070

  Basis Set: 6-31G
    Blend: 6-31G
  Basis Set: (6-31G AUX)
    Blend: CC-PVDZ-JKFIT
  Basis Set: (6-31G AUX)
    Blend: CC-PVDZ-JKFIT
	 Reference Energy          =     -75.9346929850962056 [Eh]
	 Singles Energy            =      -0.0000000000000000 [Eh]
	 Same-Spin Energy          =      -0.0311334898765328 [Eh]
	 Opposite-Spin Energy      =      -0.0984533903635097 [Eh]
	 Correlation Energy        =      -0.1295868802400424 [Eh]
	 Total Energy              =     -76.0642798653362462 [Eh]

	 ================> DF-SCS-MP2 Energies <==================
	-----------------------------------------------------------
	 SCS Same-Spin Scale       =       0.3333333333333333 [-]
	 SCS Opposite-Spin Scale   =       1.2000000000000000 [-]
	 SCS Same-Spin Energy      =      -0.0103778299588443 [Eh]
	 SCS Opposite-Spin Energy  =      -0.1181440684362116 [Eh]
	 SCS Correlation Energy    =      -0.1285218983950558 [Eh]
	 SCS Total Energy          =     -76.0632148834912556 [Eh]
	-----------------------------------------------------------

  -Total Gradient:
     Atom            X                  Y                   Z
    ------   -----------------  -----------------  -----------------
       1       -0.010412711580    -0.180553691666    -0.000000000000
       2        0.037322776372     0.072870458938     0.000000000000
       3       -0.026910064792     0.107683232728     0.000000000000

*** Psi4 exiting successfully. Buy a developer a beer!
