                               Psi4 1.2a1.dev429

  ==> Input File <==

--------------------------------------------------------------------------
# density-fitted hartree fock energies and gradients with 6-31g
molecule h20 {
0 1
O 0.0000000000 0.0000000000 0.0000000000
H 0.0000000000 0.0000000000 1.0000000000
H 0.0000000000 0.5785088487 -0.6894399988
}

set basis 6-31g

gradient('hf')
--------------------------------------------------------------------------

    Molecular point group: cs
  Charge       = 0
  Multiplicity = 1
  Basis Set: 6-31G
    Blend: 6-31G
  Basis Set: (6-31G AUX)
    Blend: CC-PVDZ-JKFIT

    Orbital Energies (a.u.)
    -----------------------

    Doubly Occupied:

       1Ap   -20.527799     2Ap    -1.324418     3Ap    -0.758882
       4Ap    -0.498724     1App   -0.482308

  @DF-RHF Final Energy:   -75.96344061927223

   => Energetics <=

    Nuclear Repulsion Energy =              9.2335494603179118
    One-Electron Energy =                -123.2097171363644321
    Two-Electron Energy =                  38.0127270567742670
    Total Energy =                        -75.9634406192722480
    Molecular point group: cs

    Geometry (in Angstrom), charge = 0, multiplicity = 1:

       Center              X                  Y                   Z               Mass
    ------------   -----------------  -----------------  -----------------  -----------------
           O          0.032371872245     0.017378141589     0.000000000000    15.994914619560
           H          0.032371872245    -0.982621858411     0.000000000000     1.007825032070
           H         -0.546136976455     0.706818140389     0.000000000000     1.007825032070

  Basis Set: 6-31G
    Blend: 6-31G
  Basis Set: (6-31G AUX)
    Blend: CC-PVDZ-JKFIT

  -Total Gradient:
     Atom            X                  Y                   Z
    ------   -----------------  -----------------  -----------------
       1       -0.086227745852     0.085880661436     0.000000000000
       2        0.028419548783    -0.066113056336     0.000000000000
       3        0.057808197069    -0.019767605100     0.000000000000

*** Psi4 exiting successfully. Buy a developer a beer!
