                               Psi4 1.2a1.dev429

  ==> Input File <==

--------------------------------------------------------------------------
# density-fitted hartree fock energies and gradients with 6-31g
molecule h2o {
0 1
O 0.0000000000 0.0000000000 0.0000000000
H 0.0000000000 0.0000000000 1.1000000000
H 0.0000000000 1.4000000000 0.0000000000
}

set basis 6-31g

gradient('mp2')
--------------------------------------------------------------------------

    Molecular point group: cs
  Charge       = 0
  Multiplicity = 1
  Basis Set: 6-31G
    Blend: 6-31G
  Basis Set: (6-31G AUX)
    Blend: CC-PVDZ-JKFIT

    Orbital Energies (a.u.)
    -----------------------

    Doubly Occupied:

       1Ap   -20.622667     2Ap    -1.272949     3Ap    -0.591398
       4Ap    -0.517672     1App   -0.505592

  @DF-RHF Final Energy:   -75.88054656142253

   => Energetics <=

    Nuclear Repulsion Energy =              7.1696468115333074
    One-Electron Energy =                -119.0798307996238208
    Two-Electron Energy =                  36.0296374266679749
    Total Energy =                        -75.8805465614225341
  Basis Set: (6-31G AUX)
    Blend: CC-PVDZ-RI
    Molecular point group: cs

    Geometry (in Angstrom), charge = 0, multiplicity = 1:

       Center              X                  Y                   Z               Mass
    ------------   -----------------  -----------------  -----------------  -----------------
           O          0.078340411291     0.061553180300     0.000000000000    15.994914619560
           H          0.078340411291    -1.038446819700     0.000000000000     1.007825032070
           H         -1.321659588709     0.061553180300     0.000000000000     1.007825032070

  Basis Set: 6-31G
    Blend: 6-31G
  Basis Set: (6-31G AUX)
    Blend: CC-PVDZ-JKFIT
  Basis Set: (6-31G AUX)
    Blend: CC-PVDZ-JKFIT
	 Reference Energy          =     -75.8805465614225341 [Eh]
	 Singles Energy            =      -0.0000000000000000 [Eh]
	 Same-Spin Energy          =      -0.0360523673580941 [Eh]
	 Opposite-Spin Energy      =      -0.1230140860763363 [Eh]
	 Correlation Energy        =      -0.1590664534344303 [Eh]
	 Total Energy              =     -76.0396130148569682 [Eh]

	 ================> DF-SCS-MP2 Energies <==================
	-----------------------------------------------------------
	 SCS Same-Spin Scale       =       0.3333333333333333 [-]
	 SCS Opposite-Spin Scale   =       1.2000000000000000 [-]
	 SCS Same-Spin Energy      =      -0.0120174557860314 [Eh]
	 SCS Opposite-Spin Energy  =      -0.1476169032916035 [Eh]
	 SCS Correlation Energy    =      -0.1596343590776349 [Eh]
	 SCS Total Energy          =     -76.0401809205001626 [Eh]
	-----------------------------------------------------------

  -Total Gradient:
     Atom            X                  Y                   Z
    ------   -----------------  -----------------  -----------------
       1        0.106556806018     0.064747016513    -0.000000000000
       2       -0.007948313231    -0.058501918450     0.000000000000
       3       -0.098608492788    -0.006245098064    -0.000000000000

*** Psi4 exiting successfully. Buy a developer a beer!
