                               Psi4 1.2a1.dev429

  ==> Input File <==

--------------------------------------------------------------------------
# density-fitted hartree fock energies and gradients with 6-31g
molecule h20 {
0 1
O 0.0000000000 0.0000000000 0.0000000000
H 0.0000000000 0.0000000000 1.2000000000
H 0.0000000000 0.4500000000 -0.7794228634
}

set basis 6-31g

gradient('hf')
--------------------------------------------------------------------------

    Molecular point group: cs
  Charge       = 0
  Multiplicity = 1
  Basis Set: 6-31G
    Blend: 6-31G
  Basis Set: (6-31G AUX)
    Blend: CC-PVDZ-JKFIT

    Orbital Energies (a.u.)
    -----------------------

    Doubly Occupied:

       1Ap   -20.524013     2Ap    -1.282377     3Ap    -0.697965
       4Ap    -0.467629     1App   -0.463874

  @DF-RHF Final Energy:   -75.90851549624225

   => Energetics <=

    Nuclear Repulsion Energy =              8.4923329135856367
    One-Electron Energy =                -121.9299825058886171
    Two-Electron Energy =                  37.5291340960607300
    Total Energy =                        -75.9085154962422450
    Molecular point group: cs

    Geometry (in Angstrom), charge = 0, multiplicity = 1:

       Center              X                  Y                   Z               Mass
    ------------   -----------------  -----------------  -----------------  -----------------
           O          0.025180846486     0.023534418472     0.000000000000    15.994914619560
           H          0.025180846486    -1.176465581528     0.000000000000     1.007825032070
           H         -0.424819153514     0.802957281872     0.000000000000     1.007825032070

  Basis Set: 6-31G
    Blend: 6-31G
  Basis Set: (6-31G AUX)
    Blend: CC-PVDZ-JKFIT

  -Total Gradient:
     Atom            X                  Y                   Z
    ------   -----------------  -----------------  -----------------
       1       -0.090183524361     0.179025771160     0.000000000000
       2        0.028400449781    -0.147748889478     0.000000000000
       3        0.061783074580    -0.031276881681     0.000000000000

*** Psi4 exiting successfully. Buy a developer a beer!
