                               Psi4 1.2a1.dev429

  ==> Input File <==

--------------------------------------------------------------------------
# density-fitted hartree fock energies and gradients with 6-31g
molecule h20 {
0 1
O 0.0000000000 0.0000000000 0.0000000000
H 0.0000000000 0.0000000000 0.8000000000
H 0.0000000000 0.0000000000 -1.4000000000
}

set basis 6-31g

gradient('hf')
--------------------------------------------------------------------------

    Molecular point group: c2v
  Charge       = 0
  Multiplicity = 1
  Basis Set: 6-31G
    Blend: 6-31G
  Basis Set: (6-31G AUX)
    Blend: CC-PVDZ-JKFIT

    Orbital Energies (a.u.)
    -----------------------

    Doubly Occupied:

       1A1   -20.482691     2A1    -1.277326     3A1    -0.662740
       1B2    -0.434761     1B1    -0.434761

  @DF-RHF Final Energy:   -75.79563901014562

   => Energetics <=

    Nuclear Repulsion Energy =              8.5561769440850650
    One-Electron Energy =                -122.1190721074820260
    Two-Electron Energy =                  37.7672561532513384
    Total Energy =                        -75.7956390101456208
    Molecular point group: c2v

    Geometry (in Angstrom), charge = 0, multiplicity = 1:

       Center              X                  Y                   Z               Mass
    ------------   -----------------  -----------------  -----------------  -----------------
           O          0.000000000000     0.000000000000     0.033574461982    15.994914619560
           H          0.000000000000     0.000000000000     0.833574461982     1.007825032070
           H          0.000000000000     0.000000000000    -1.366425538018     1.007825032070

  Basis Set: 6-31G
    Blend: 6-31G
  Basis Set: (6-31G AUX)
    Blend: CC-PVDZ-JKFIT

  -Total Gradient:
     Atom            X                  Y                   Z
    ------   -----------------  -----------------  -----------------
       1       -0.000000000000     0.000000000000     0.455552732720
       2        0.000000000000     0.000000000000    -0.287551616565
       3        0.000000000000     0.000000000000    -0.168001116155

*** Psi4 exiting successfully. Buy a developer a beer!
