                               Psi4 1.3.1 release

  ==> Input File <==

--------------------------------------------------------------------------
# density fitted MP2
molecule h2o {
0 1
H 0.0000000000 0.0000000000 1.2000000000
H 0.0000000000 0.8876760389 -0.5125000000
O 0.0000000000 0.0000000000 0.0000000000
}

set basis 6-31g
energy('mp2')

--------------------------------------------------------------------------

    Molecular point group: cs

    Geometry (in Angstrom), charge = 0, multiplicity = 1:

       Center              X                  Y                   Z               Mass
    ------------   -----------------  -----------------  -----------------  -----------------
         H            0.049672075707    -1.161529262307     0.000000000000     1.007825032230
         H           -0.838003963193     0.550970737693     0.000000000000     1.007825032230
         O            0.049672075707     0.038470737693     0.000000000000    15.994914619570

  Charge       = 0
  Multiplicity = 1
  Basis Set: 6-31G
    Blend: 6-31G
  Basis Set: (6-31G AUX)
    Blend: CC-PVDZ-JKFIT

    Orbital Energies [Eh]
    ---------------------

    Doubly Occupied:

       1Ap   -20.573585     2Ap    -1.279602     3Ap    -0.650537
       4Ap    -0.507618     1App   -0.485711

  @DF-RHF Final Energy:   -75.93690805388525

   => Energetics <=

    Nuclear Repulsion Energy =              7.9323542239586544
    One-Electron Energy =                -120.7444186140362348
    Two-Electron Energy =                  36.8751563361923260
    Total Energy =                        -75.9369080538852472

  Dipole Moment: [D]
     X:    -1.9885      Y:    -1.2768      Z:     0.0000     Total:     2.3631

  Basis Set: (6-31G AUX)
    Blend: CC-PVDZ-RI
	 Reference Energy          =     -75.9369080538852472 [Eh]
	 Singles Energy            =      -0.0000000000000000 [Eh]
	 Same-Spin Energy          =      -0.0329652193655457 [Eh]
	 Opposite-Spin Energy      =      -0.1083766863874656 [Eh]
	 Correlation Energy        =      -0.1413419057530112 [Eh]
	 Total Energy              =     -76.0782499596382564 [Eh]

	 ================> DF-SCS-MP2 Energies <==================
	-----------------------------------------------------------
	 SCS Same-Spin Scale       =       0.3333333333333333 [-]
	 SCS Opposite-Spin Scale   =       1.2000000000000000 [-]
	 SCS Same-Spin Energy      =      -0.0109884064551819 [Eh]
	 SCS Opposite-Spin Energy  =      -0.1300520236649587 [Eh]
	 SCS Correlation Energy    =      -0.1410404301201406 [Eh]
	 SCS Total Energy          =     -76.0779484840053897 [Eh]
	-----------------------------------------------------------

*** Psi4 exiting successfully. Buy a developer a beer!
