                               Psi4 1.2a1.dev429

  ==> Input File <==

--------------------------------------------------------------------------
# density-fitted hartree fock energies and gradients with 6-31g
molecule h2o {
0 1
O 0.0000000000 0.0000000000 0.0000000000
H 0.0000000000 0.0000000000 1.3000000000
H 0.0000000000 0.3078181290 -0.8457233587
}

set basis 6-31g

gradient('mp2')
--------------------------------------------------------------------------

    Molecular point group: cs
  Charge       = 0
  Multiplicity = 1
  Basis Set: 6-31G
    Blend: 6-31G
  Basis Set: (6-31G AUX)
    Blend: CC-PVDZ-JKFIT

    Orbital Energies (a.u.)
    -----------------------

    Doubly Occupied:

       1Ap   -20.511186     2Ap    -1.260379     3Ap    -0.668701
       1App   -0.448927     4Ap    -0.447582

  @DF-RHF Final Energy:   -75.86853789935664

   => Energetics <=

    Nuclear Repulsion Energy =              8.2043928536284341
    One-Electron Energy =                -121.4723106545027491
    Two-Electron Energy =                  37.3993799015176691
    Total Energy =                        -75.8685378993566530
  Basis Set: (6-31G AUX)
    Blend: CC-PVDZ-RI
    Molecular point group: cs

    Geometry (in Angstrom), charge = 0, multiplicity = 1:

       Center              X                  Y                   Z               Mass
    ------------   -----------------  -----------------  -----------------  -----------------
           O          0.017224713449     0.025420156371     0.000000000000    15.994914619560
           H          0.017224713449    -1.274579843629     0.000000000000     1.007825032070
           H         -0.290593415551     0.871143515071     0.000000000000     1.007825032070

  Basis Set: 6-31G
    Blend: 6-31G
  Basis Set: (6-31G AUX)
    Blend: CC-PVDZ-JKFIT
  Basis Set: (6-31G AUX)
    Blend: CC-PVDZ-JKFIT
	 Reference Energy          =     -75.8685378993566388 [Eh]
	 Singles Energy            =      -0.0000000000000000 [Eh]
	 Same-Spin Energy          =      -0.0324291364728251 [Eh]
	 Opposite-Spin Energy      =      -0.1029851735429922 [Eh]
	 Correlation Energy        =      -0.1354143100158174 [Eh]
	 Total Energy              =     -76.0039522093724571 [Eh]

	 ================> DF-SCS-MP2 Energies <==================
	-----------------------------------------------------------
	 SCS Same-Spin Scale       =       0.3333333333333333 [-]
	 SCS Opposite-Spin Scale   =       1.2000000000000000 [-]
	 SCS Same-Spin Energy      =      -0.0108097121576084 [Eh]
	 SCS Opposite-Spin Energy  =      -0.1235822082515906 [Eh]
	 SCS Correlation Energy    =      -0.1343919204091990 [Eh]
	 SCS Total Energy          =     -76.0029298197658392 [Eh]
	-----------------------------------------------------------

  -Total Gradient:
     Atom            X                  Y                   Z
    ------   -----------------  -----------------  -----------------
       1       -0.091162972673     0.199611864978     0.000000000000
       2        0.027365246486    -0.139899961595    -0.000000000000
       3        0.063797726187    -0.059711903383     0.000000000000

*** Psi4 exiting successfully. Buy a developer a beer!
