                               Psi4 1.2a1.dev429

  ==> Input File <==

--------------------------------------------------------------------------
# density-fitted hartree fock energies and gradients with 6-31g
molecule h20 {
0 1
O 0.0000000000 0.0000000000 0.0000000000
H 0.0000000000 0.0000000000 1.2000000000
H 0.0000000000 0.5000000000 -0.8660254038
}

set basis 6-31g

gradient('hf')
--------------------------------------------------------------------------

    Molecular point group: cs
  Charge       = 0
  Multiplicity = 1
  Basis Set: 6-31G
    Blend: 6-31G
  Basis Set: (6-31G AUX)
    Blend: CC-PVDZ-JKFIT

    Orbital Energies (a.u.)
    -----------------------

    Doubly Occupied:

       1Ap   -20.531419     2Ap    -1.252073     3Ap    -0.668442
       4Ap    -0.461404     1App   -0.458990

  @DF-RHF Final Energy:   -75.90747028850414

   => Energetics <=

    Nuclear Repulsion Energy =              8.0102121334579763
    One-Electron Energy =                -121.0907089785569468
    Two-Electron Energy =                  37.1730265565948130
    Total Energy =                        -75.9074702885041575
    Molecular point group: cs

    Geometry (in Angstrom), charge = 0, multiplicity = 1:

       Center              X                  Y                   Z               Mass
    ------------   -----------------  -----------------  -----------------  -----------------
           O          0.027978718318     0.018688362305     0.000000000000    15.994914619560
           H          0.027978718318    -1.181311637695     0.000000000000     1.007825032070
           H         -0.472021281682     0.884713766105     0.000000000000     1.007825032070

  Basis Set: 6-31G
    Blend: 6-31G
  Basis Set: (6-31G AUX)
    Blend: CC-PVDZ-JKFIT

  -Total Gradient:
     Atom            X                  Y                   Z
    ------   -----------------  -----------------  -----------------
       1       -0.033363117606     0.076521103350     0.000000000000
       2        0.030023308529    -0.142792325281     0.000000000000
       3        0.003339809078     0.066271221931     0.000000000000

*** Psi4 exiting successfully. Buy a developer a beer!
