                               Psi4 1.2a1.dev429

  ==> Input File <==

--------------------------------------------------------------------------
# density-fitted MP2 energies and gradients with 6-31g

molecule h20 {
-1 1
C 0.0000000000 0.0000000000 0.0000000000
X 0.0000000000 0.0000000000 1.0000000000
H 0.0000000000 1.0232214916 -0.4771360175
H 0.8861358054 -0.5116107458 -0.4771360175
H -0.8861358054 -0.5116107458 -0.4771360175
}

set reference rhf
set basis 6-31g

gradient('mp2')
--------------------------------------------------------------------------

    Molecular point group: cs
  Charge       = -1
  Multiplicity = 1
  Basis Set: 6-31G
    Blend: 6-31G
  Basis Set: (6-31G AUX)
    Blend: CC-PVDZ-JKFIT

    Orbital Energies (a.u.)
    -----------------------

    Doubly Occupied:

       1Ap   -10.876838     2Ap    -0.576545     3Ap    -0.200335
       1App   -0.200335     4Ap     0.010286

  @DF-RHF Final Energy:   -39.44885679738132

   => Energetics <=

    Nuclear Repulsion Energy =              9.3325985992976168
    One-Electron Energy =                 -73.8753774450391205
    Two-Electron Energy =                  25.0939220483601879
    Total Energy =                        -39.4488567973813247
  Basis Set: (6-31G AUX)
    Blend: CC-PVDZ-RI
    Molecular point group: cs

    Geometry (in Angstrom), charge = -1, multiplicity = 1:

       Center              X                  Y                   Z               Mass
    ------------   -----------------  -----------------  -----------------  -----------------
           C          0.000000000000     0.096023646805     0.000000000000    12.000000000000
           H         -0.511610745790    -0.381112370695     0.886135805418     1.007825032070
           H         -0.511610745790    -0.381112370695    -0.886135805418     1.007825032070
           H          1.023221491579    -0.381112370695     0.000000000000     1.007825032070

  Basis Set: 6-31G
    Blend: 6-31G
  Basis Set: (6-31G AUX)
    Blend: CC-PVDZ-JKFIT
  Basis Set: (6-31G AUX)
    Blend: CC-PVDZ-JKFIT
	 Reference Energy          =     -39.4488567973813247 [Eh]
	 Singles Energy            =      -0.0000000000000000 [Eh]
	 Same-Spin Energy          =      -0.0171907925921421 [Eh]
	 Opposite-Spin Energy      =      -0.0801117301928932 [Eh]
	 Correlation Energy        =      -0.0973025227850353 [Eh]
	 Total Energy              =     -39.5461593201663604 [Eh]

	 ================> DF-SCS-MP2 Energies <==================
	-----------------------------------------------------------
	 SCS Same-Spin Scale       =       0.3333333333333333 [-]
	 SCS Opposite-Spin Scale   =       1.2000000000000000 [-]
	 SCS Same-Spin Energy      =      -0.0057302641973807 [Eh]
	 SCS Opposite-Spin Energy  =      -0.0961340762314719 [Eh]
	 SCS Correlation Energy    =      -0.1018643404288526 [Eh]
	 SCS Total Energy          =     -39.5507211378101786 [Eh]
	-----------------------------------------------------------

  -Total Gradient:
     Atom            X                  Y                   Z
    ------   -----------------  -----------------  -----------------
       1        0.000000000051     0.000862001440     0.000000000005
       2        0.000721330225    -0.000287333821    -0.001249380646
       3        0.000721330220    -0.000287333825     0.001249380640
       4       -0.001442660495    -0.000287333795     0.000000000001

*** Psi4 exiting successfully. Buy a developer a beer!
