                               Psi4 1.2a1.dev429

  ==> Input File <==

--------------------------------------------------------------------------
# density-fitted hartree fock energies and gradients with 6-31g
molecule h2o {
0 1
O 0.0000000000 0.0000000000 0.0000000000
H 0.0000000000 0.0000000000 1.5000000000
H 0.0000000000 0.2604722665 -1.4772116295
}

set basis 6-31g

gradient('mp2')
--------------------------------------------------------------------------

    Molecular point group: c2v
  Charge       = 0
  Multiplicity = 1
  Basis Set: 6-31G
    Blend: 6-31G
  Basis Set: (6-31G AUX)
    Blend: CC-PVDZ-JKFIT

    Orbital Energies (a.u.)
    -----------------------

    Doubly Occupied:

       1A1   -20.528771     2A1    -1.135728     1B2    -0.483454
       1B1    -0.418026     3A1    -0.408195

  @DF-RHF Final Energy:   -75.69289867408018

   => Energetics <=

    Nuclear Repulsion Energy =              5.8216230848479631
    One-Electron Energy =                -117.0806962901883423
    Two-Electron Energy =                  35.5661745312602093
    Total Energy =                        -75.6928986740801690
  Basis Set: (6-31G AUX)
    Blend: CC-PVDZ-RI
    Molecular point group: c2v

    Geometry (in Angstrom), charge = 0, multiplicity = 1:

       Center              X                  Y                   Z               Mass
    ------------   -----------------  -----------------  -----------------  -----------------
           O         -0.000000000000     0.000000000000    -0.014631035857    15.994914619560
           H          0.000000000000    -1.494292047128     0.116102578265     1.007825032070
           H         -0.000000000000     1.494292047128     0.116102578265     1.007825032070

  Basis Set: 6-31G
    Blend: 6-31G
  Basis Set: (6-31G AUX)
    Blend: CC-PVDZ-JKFIT
  Basis Set: (6-31G AUX)
    Blend: CC-PVDZ-JKFIT
	 Reference Energy          =     -75.6928986740801832 [Eh]
	 Singles Energy            =      -0.0000000000000000 [Eh]
	 Same-Spin Energy          =      -0.0356915209093498 [Eh]
	 Opposite-Spin Energy      =      -0.1211817051755875 [Eh]
	 Correlation Energy        =      -0.1568732260849373 [Eh]
	 Total Energy              =     -75.8497719001651234 [Eh]

	 ================> DF-SCS-MP2 Energies <==================
	-----------------------------------------------------------
	 SCS Same-Spin Scale       =       0.3333333333333333 [-]
	 SCS Opposite-Spin Scale   =       1.2000000000000000 [-]
	 SCS Same-Spin Energy      =      -0.0118971736364499 [Eh]
	 SCS Opposite-Spin Energy  =      -0.1454180462107050 [Eh]
	 SCS Correlation Energy    =      -0.1573152198471549 [Eh]
	 SCS Total Energy          =     -75.8502138939273323 [Eh]
	-----------------------------------------------------------

  -Total Gradient:
     Atom            X                  Y                   Z
    ------   -----------------  -----------------  -----------------
       1       -0.000000000000     0.000000000007     0.063793168921
       2        0.000000000000    -0.105412521438    -0.031896584461
       3        0.000000000000     0.105412521431    -0.031896584460

*** Psi4 exiting successfully. Buy a developer a beer!
