                               Psi4 1.2a1.dev429

  ==> Input File <==

--------------------------------------------------------------------------
# density-fitted hartree fock energies and gradients with 6-31g
molecule h20 {
0 1
O 0.0000000000 0.0000000000 0.0000000000
H 0.0000000000 0.0000000000 0.9000000000
H 0.0000000000 0.0000000000 -0.7000000000
}

set basis 6-31g

gradient('hf')
--------------------------------------------------------------------------

    Molecular point group: c2v
  Charge       = 0
  Multiplicity = 1
  Basis Set: 6-31G
    Blend: 6-31G
  Basis Set: (6-31G AUX)
    Blend: CC-PVDZ-JKFIT

    Orbital Energies (a.u.)
    -----------------------

    Doubly Occupied:

       1A1   -20.495603     2A1    -1.402523     3A1    -0.893779
       1B1    -0.496377     1B2    -0.496377

  @DF-RHF Final Energy:   -75.83051247849778

   => Energetics <=

    Nuclear Repulsion Energy =             11.0822726918004939
    One-Electron Energy =                -126.2562512112956483
    Two-Electron Energy =                  39.3434660409973773
    Total Energy =                        -75.8305124784977806
    Molecular point group: c2v

    Geometry (in Angstrom), charge = 0, multiplicity = 1:

       Center              X                  Y                   Z               Mass
    ------------   -----------------  -----------------  -----------------  -----------------
           O          0.000000000000     0.000000000000    -0.011191487327    15.994914619560
           H          0.000000000000     0.000000000000     0.888808512673     1.007825032070
           H          0.000000000000     0.000000000000    -0.711191487327     1.007825032070

  Basis Set: 6-31G
    Blend: 6-31G
  Basis Set: (6-31G AUX)
    Blend: CC-PVDZ-JKFIT

  -Total Gradient:
     Atom            X                  Y                   Z
    ------   -----------------  -----------------  -----------------
       1        0.000000000000     0.000000000000    -0.682296172986
       2       -0.000000000000     0.000000000000    -0.023549311536
       3        0.000000000000    -0.000000000000     0.705845484523

*** Psi4 exiting successfully. Buy a developer a beer!
