                               Psi4 1.2a1.dev429

  ==> Input File <==

--------------------------------------------------------------------------
# density-fitted hartree fock energies and gradients with 6-31g
molecule h20 {
0 1
O 0.0000000000 0.0000000000 0.0000000000
H 0.0000000000 0.0000000000 0.7000000000
H 0.0000000000 0.8356238926 -0.9958577761
}

set basis 6-31g

gradient('hf')
--------------------------------------------------------------------------

    Molecular point group: cs
  Charge       = 0
  Multiplicity = 1
  Basis Set: 6-31G
    Blend: 6-31G
  Basis Set: (6-31G AUX)
    Blend: CC-PVDZ-JKFIT

    Orbital Energies (a.u.)
    -----------------------

    Doubly Occupied:

       1Ap   -20.522311     2Ap    -1.379632     3Ap    -0.723991
       4Ap    -0.483411     1App   -0.479236

  @DF-RHF Final Energy:   -75.76843741140061

   => Energetics <=

    Nuclear Repulsion Energy =              9.5841202980516389
    One-Electron Energy =                -123.5279518151884304
    Two-Electron Energy =                  38.1753941057361601
    Total Energy =                        -75.7684374114006260
    Molecular point group: cs

    Geometry (in Angstrom), charge = 0, multiplicity = 1:

       Center              X                  Y                   Z               Mass
    ------------   -----------------  -----------------  -----------------  -----------------
           O          0.046759371022    -0.016555442759     0.000000000000    15.994914619560
           H          0.046759371022    -0.716555442759     0.000000000000     1.007825032070
           H         -0.788864521578     0.979302333341     0.000000000000     1.007825032070

  Basis Set: 6-31G
    Blend: 6-31G
  Basis Set: (6-31G AUX)
    Blend: CC-PVDZ-JKFIT

  -Total Gradient:
     Atom            X                  Y                   Z
    ------   -----------------  -----------------  -----------------
       1        0.031972246830    -0.872192260834     0.000000000000
       2        0.048216278377     0.736236646376     0.000000000000
       3       -0.080188525206     0.135955614459     0.000000000000

*** Psi4 exiting successfully. Buy a developer a beer!
