                               Psi4 1.2a1.dev429

  ==> Input File <==

--------------------------------------------------------------------------
# density-fitted hartree fock energies and gradients with 6-31g
molecule h20 {
0 1
O 0.0000000000 0.0000000000 0.0000000000
H 0.0000000000 0.0000000000 0.9000000000
H 0.0000000000 0.4499513268 -0.5362311102
}

set basis 6-31g

gradient('hf')
--------------------------------------------------------------------------

    Molecular point group: cs
  Charge       = 0
  Multiplicity = 1
  Basis Set: 6-31G
    Blend: 6-31G
  Basis Set: (6-31G AUX)
    Blend: CC-PVDZ-JKFIT

    Orbital Energies (a.u.)
    -----------------------

    Doubly Occupied:

       1Ap   -20.509803     2Ap    -1.427442     3Ap    -0.870901
       4Ap    -0.523973     1App   -0.503742

  @DF-RHF Final Energy:   -75.84923448157814

   => Energetics <=

    Nuclear Repulsion Energy =             11.1031348754477737
    One-Electron Energy =                -126.2330163936997849
    Two-Electron Energy =                  39.2806470366738694
    Total Energy =                        -75.8492344815781365
    Molecular point group: cs

    Geometry (in Angstrom), charge = 0, multiplicity = 1:

       Center              X                  Y                   Z               Mass
    ------------   -----------------  -----------------  -----------------  -----------------
           O          0.025178122859     0.020355574601     0.000000000000    15.994914619560
           H          0.025178122859    -0.879644425399     0.000000000000     1.007825032070
           H         -0.424773203941     0.556586684801     0.000000000000     1.007825032070

  Basis Set: 6-31G
    Blend: 6-31G
  Basis Set: (6-31G AUX)
    Blend: CC-PVDZ-JKFIT

  -Total Gradient:
     Atom            X                  Y                   Z
    ------   -----------------  -----------------  -----------------
       1       -0.504037844253     0.494503906337     0.000000000000
       2        0.021325988330     0.038113090876     0.000000000000
       3        0.482711855923    -0.532616997213     0.000000000000

*** Psi4 exiting successfully. Buy a developer a beer!
