                               Psi4 1.2a1.dev429

  ==> Input File <==

--------------------------------------------------------------------------
# density-fitted hartree fock energies and gradients with 6-31g
molecule h20 {
0 1
O 0.0000000000 0.0000000000 0.0000000000
O 0.0000000000 0.0000000000 1.1111111111
}

set basis 6-31g

gradient('hf')
--------------------------------------------------------------------------

    Molecular point group: d2h
  Charge       = 0
  Multiplicity = 1
  Basis Set: 6-31G
    Blend: 6-31G
  Basis Set: (6-31G AUX)
    Blend: CC-PVDZ-JKFIT

    Orbital Energies (a.u.)
    -----------------------

    Doubly Occupied:

       1Ag   -20.740933     1B1u  -20.739614     2Ag    -1.799230
       2B1u   -1.068132     1B2u   -0.822934     3Ag    -0.755958
       1B3u   -0.706466     1B3g   -0.447175

  @DF-RHF Final Energy:  -149.44759143397533

   => Energetics <=

    Nuclear Repulsion Energy =             30.4806072150888063
    One-Electron Energy =                -265.6955096229006585
    Two-Electron Energy =                  85.7673109738365014
    Total Energy =                       -149.4475914339753331
    Molecular point group: d2h

    Geometry (in Angstrom), charge = 0, multiplicity = 1:

       Center              X                  Y                   Z               Mass
    ------------   -----------------  -----------------  -----------------  -----------------
           O          0.000000000000     0.000000000000    -0.555555555550    15.994914619560
           O          0.000000000000     0.000000000000     0.555555555550    15.994914619560

  Basis Set: 6-31G
    Blend: 6-31G
  Basis Set: (6-31G AUX)
    Blend: CC-PVDZ-JKFIT

  -Total Gradient:
     Atom            X                  Y                   Z
    ------   -----------------  -----------------  -----------------
       1       -0.000000000000     0.000000000000     0.199476614389
       2        0.000000000000     0.000000000000    -0.199476614389

*** Psi4 exiting successfully. Buy a developer a beer!
