                               Psi4 1.2a1.dev429

  ==> Input File <==

--------------------------------------------------------------------------
# density-fitted hartree fock energies and gradients with 6-31g
molecule h2o {
0 1
O 0.0000000000 0.0000000000 0.0000000000
H 0.0000000000 0.0000000000 1.4000000000
H 0.0000000000 1.2124355653 -0.7000000000
}

set basis 6-31g

gradient('mp2')
--------------------------------------------------------------------------

    Molecular point group: c2v
  Charge       = 0
  Multiplicity = 1
  Basis Set: 6-31G
    Blend: 6-31G
  Basis Set: (6-31G AUX)
    Blend: CC-PVDZ-JKFIT

    Orbital Energies (a.u.)
    -----------------------

    Doubly Occupied:

       1A1   -20.619399     2A1    -1.214920     1B2    -0.538028
       1B1    -0.487247     3A1    -0.472828

  @DF-RHF Final Energy:   -75.80470888947634

   => Energetics <=

    Nuclear Repulsion Energy =              6.2659685294740441
    One-Electron Energy =                -117.4765106205619389
    Two-Electron Energy =                  35.4058332016115429
    Total Energy =                        -75.8047088894763448
  Basis Set: (6-31G AUX)
    Blend: CC-PVDZ-RI
    Molecular point group: c2v

    Geometry (in Angstrom), charge = 0, multiplicity = 1:

       Center              X                  Y                   Z               Mass
    ------------   -----------------  -----------------  -----------------  -----------------
           O          0.000000000000     0.000000000000    -0.078340411291    15.994914619560
           H          0.000000000000    -1.212435565299     0.621659588710     1.007825032070
           H         -0.000000000000     1.212435565299     0.621659588710     1.007825032070

  Basis Set: 6-31G
    Blend: 6-31G
  Basis Set: (6-31G AUX)
    Blend: CC-PVDZ-JKFIT
  Basis Set: (6-31G AUX)
    Blend: CC-PVDZ-JKFIT
	 Reference Energy          =     -75.8047088894763448 [Eh]
	 Singles Energy            =      -0.0000000000000000 [Eh]
	 Same-Spin Energy          =      -0.0379083190283017 [Eh]
	 Opposite-Spin Energy      =      -0.1322008992345249 [Eh]
	 Correlation Energy        =      -0.1701092182628266 [Eh]
	 Total Energy              =     -75.9748181077391678 [Eh]

	 ================> DF-SCS-MP2 Energies <==================
	-----------------------------------------------------------
	 SCS Same-Spin Scale       =       0.3333333333333333 [-]
	 SCS Opposite-Spin Scale   =       1.2000000000000000 [-]
	 SCS Same-Spin Energy      =      -0.0126361063427672 [Eh]
	 SCS Opposite-Spin Energy  =      -0.1586410790814299 [Eh]
	 SCS Correlation Energy    =      -0.1712771854241971 [Eh]
	 SCS Total Energy          =     -75.9759860749005469 [Eh]
	-----------------------------------------------------------

  -Total Gradient:
     Atom            X                  Y                   Z
    ------   -----------------  -----------------  -----------------
       1       -0.000000000000    -0.000000000001    -0.060526295049
       2        0.000000000000    -0.098290741729     0.030263147524
       3        0.000000000000     0.098290741730     0.030263147524

*** Psi4 exiting successfully. Buy a developer a beer!
