                               Psi4 1.2a1.dev429

  ==> Input File <==

--------------------------------------------------------------------------
# density-fitted hartree fock energies and gradients with 6-31g
molecule h2o {
0 1
O 0.0000000000 0.0000000000 0.0000000000
H 0.0000000000 0.0000000000 1.2000000000
H 0.0000000000 0.8457233587 -0.3078181290
}

set basis 6-31g

gradient('mp2')
--------------------------------------------------------------------------

    Molecular point group: cs
  Charge       = 0
  Multiplicity = 1
  Basis Set: 6-31G
    Blend: 6-31G
  Basis Set: (6-31G AUX)
    Blend: CC-PVDZ-JKFIT

    Orbital Energies (a.u.)
    -----------------------

    Doubly Occupied:

       1Ap   -20.570956     2Ap    -1.326197     3Ap    -0.676129
       4Ap    -0.530386     1App   -0.495654

  @DF-RHF Final Energy:   -75.94293231232018

   => Energetics <=

    Nuclear Repulsion Energy =              8.5377398463398606
    One-Electron Energy =                -121.7626992601543350
    Two-Electron Energy =                  37.2820271014942932
    Total Energy =                        -75.9429323123201812
  Basis Set: (6-31G AUX)
    Blend: CC-PVDZ-RI
    Molecular point group: cs

    Geometry (in Angstrom), charge = 0, multiplicity = 1:

       Center              X                  Y                   Z               Mass
    ------------   -----------------  -----------------  -----------------  -----------------
           O          0.047324511256     0.049924210514     0.000000000000    15.994914619560
           H          0.047324511256    -1.150075789486     0.000000000000     1.007825032070
           H         -0.798398847444     0.357742339514     0.000000000000     1.007825032070

  Basis Set: 6-31G
    Blend: 6-31G
  Basis Set: (6-31G AUX)
    Blend: CC-PVDZ-JKFIT
  Basis Set: (6-31G AUX)
    Blend: CC-PVDZ-JKFIT
	 Reference Energy          =     -75.9429323123201812 [Eh]
	 Singles Energy            =      -0.0000000000000000 [Eh]
	 Same-Spin Energy          =      -0.0315839186512941 [Eh]
	 Opposite-Spin Energy      =      -0.1044971318914922 [Eh]
	 Correlation Energy        =      -0.1360810505427863 [Eh]
	 Total Energy              =     -76.0790133628629661 [Eh]

	 ================> DF-SCS-MP2 Energies <==================
	-----------------------------------------------------------
	 SCS Same-Spin Scale       =       0.3333333333333333 [-]
	 SCS Opposite-Spin Scale   =       1.2000000000000000 [-]
	 SCS Same-Spin Energy      =      -0.0105279728837647 [Eh]
	 SCS Opposite-Spin Energy  =      -0.1253965582697906 [Eh]
	 SCS Correlation Energy    =      -0.1359245311535553 [Eh]
	 SCS Total Energy          =     -76.0788568434737300 [Eh]
	-----------------------------------------------------------

  -Total Gradient:
     Atom            X                  Y                   Z
    ------   -----------------  -----------------  -----------------
       1       -0.102178649040     0.130908202329    -0.000000000000
       2        0.006582283149    -0.105453597744     0.000000000000
       3        0.095596365891    -0.025454604585     0.000000000000

*** Psi4 exiting successfully. Buy a developer a beer!
