                               Psi4 1.2a1.dev429

  ==> Input File <==

--------------------------------------------------------------------------
# density-fitted hartree fock energies and gradients with 6-31g
molecule h20 {
0 1
O 0.0000000000 0.0000000000 0.0000000000
H 0.0000000000 0.0000000000 0.7000000000
H 0.0000000000 0.7070663707 -0.8426488874
}

set basis 6-31g

gradient('hf')
--------------------------------------------------------------------------

    Molecular point group: cs
  Charge       = 0
  Multiplicity = 1
  Basis Set: 6-31G
    Blend: 6-31G
  Basis Set: (6-31G AUX)
    Blend: CC-PVDZ-JKFIT

    Orbital Energies (a.u.)
    -----------------------

    Doubly Occupied:

       1Ap   -20.517817     2Ap    -1.395834     3Ap    -0.786802
       4Ap    -0.504454     1App   -0.489621

  @DF-RHF Final Energy:   -75.82445042053683

   => Energetics <=

    Nuclear Repulsion Energy =             10.2081374891047965
    One-Electron Energy =                -124.6761176324587552
    Two-Electron Energy =                  38.6435297228171208
    Total Energy =                        -75.8244504205368344
    Molecular point group: cs

    Geometry (in Angstrom), charge = 0, multiplicity = 1:

       Center              X                  Y                   Z               Mass
    ------------   -----------------  -----------------  -----------------  -----------------
           O          0.039565621636    -0.007982266078     0.000000000000    15.994914619560
           H          0.039565621636    -0.707982266078     0.000000000000     1.007825032070
           H         -0.667500749064     0.834666621322     0.000000000000     1.007825032070

  Basis Set: 6-31G
    Blend: 6-31G
  Basis Set: (6-31G AUX)
    Blend: CC-PVDZ-JKFIT

  -Total Gradient:
     Atom            X                  Y                   Z
    ------   -----------------  -----------------  -----------------
       1        0.026157913006    -0.842443053581     0.000000000000
       2        0.038242084233     0.727834231482     0.000000000000
       3       -0.064399997239     0.114608822099     0.000000000000

*** Psi4 exiting successfully. Buy a developer a beer!
