                               Psi4 1.2a1.dev429

  ==> Input File <==

--------------------------------------------------------------------------
# density-fitted hartree fock energies and gradients with 6-31g
molecule h2o {
0 1
O 0.0000000000 0.0000000000 0.0000000000
H 0.0000000000 0.0000000000 1.1000000000
H 0.0000000000 1.2124355653 -0.7000000000
}

set basis 6-31g

gradient('mp2')
--------------------------------------------------------------------------

    Molecular point group: cs
  Charge       = 0
  Multiplicity = 1
  Basis Set: 6-31G
    Blend: 6-31G
  Basis Set: (6-31G AUX)
    Blend: CC-PVDZ-JKFIT

    Orbital Energies (a.u.)
    -----------------------

    Doubly Occupied:

       1Ap   -20.594177     2Ap    -1.248323     3Ap    -0.599658
       1App   -0.484941     4Ap    -0.483878

  @DF-RHF Final Energy:   -75.87420381811924

   => Energetics <=

    Nuclear Repulsion Energy =              7.1162632672362731
    One-Electron Energy =                -119.1589793745174575
    Two-Electron Energy =                  36.1685122891619457
    Total Energy =                        -75.8742038181192413
  Basis Set: (6-31G AUX)
    Blend: CC-PVDZ-RI
    Molecular point group: cs

    Geometry (in Angstrom), charge = 0, multiplicity = 1:

       Center              X                  Y                   Z               Mass
    ------------   -----------------  -----------------  -----------------  -----------------
           O          0.067844786321     0.022382974654     0.000000000000    15.994914619560
           H          0.067844786321    -1.077617025346     0.000000000000     1.007825032070
           H         -1.144590778979     0.722382974654     0.000000000000     1.007825032070

  Basis Set: 6-31G
    Blend: 6-31G
  Basis Set: (6-31G AUX)
    Blend: CC-PVDZ-JKFIT
  Basis Set: (6-31G AUX)
    Blend: CC-PVDZ-JKFIT
	 Reference Energy          =     -75.8742038181192413 [Eh]
	 Singles Energy            =      -0.0000000000000000 [Eh]
	 Same-Spin Energy          =      -0.0350929154515238 [Eh]
	 Opposite-Spin Energy      =      -0.1191156431587338 [Eh]
	 Correlation Energy        =      -0.1542085586102576 [Eh]
	 Total Energy              =     -76.0284123767295057 [Eh]

	 ================> DF-SCS-MP2 Energies <==================
	-----------------------------------------------------------
	 SCS Same-Spin Scale       =       0.3333333333333333 [-]
	 SCS Opposite-Spin Scale   =       1.2000000000000000 [-]
	 SCS Same-Spin Energy      =      -0.0116976384838413 [Eh]
	 SCS Opposite-Spin Energy  =      -0.1429387717904806 [Eh]
	 SCS Correlation Energy    =      -0.1546364102743218 [Eh]
	 SCS Total Energy          =     -76.0288402283935625 [Eh]
	-----------------------------------------------------------

  -Total Gradient:
     Atom            X                  Y                   Z
    ------   -----------------  -----------------  -----------------
       1        0.056954271354    -0.002804784293    -0.000000000000
       2        0.026758759851    -0.069804234424     0.000000000000
       3       -0.083713031205     0.072609018717    -0.000000000000

*** Psi4 exiting successfully. Buy a developer a beer!
