                               Psi4 1.2a1.dev429

  ==> Input File <==

--------------------------------------------------------------------------
# density-fitted hartree fock energies and gradients with 6-31g
molecule o2 {
0 3
O 0.0000000000 0.0000000000 0.0000000000
O 0.0000000000 0.0000000000 1.0969696970
}

set basis 6-31g
set reference rohf

gradient('scf')
--------------------------------------------------------------------------

    Molecular point group: d2h
  Charge       = 0
  Multiplicity = 3
  Basis Set: 6-31G
    Blend: 6-31G
  Basis Set: (6-31G AUX)
    Blend: CC-PVDZ-JKFIT

    Orbital Energies (a.u.)
    -----------------------

    Doubly Occupied:

       1Ag   -20.728345     1B1u  -20.726935     2Ag    -1.810235
       2B1u   -1.058180     1B3u   -0.767184     1B2u   -0.767184
       3Ag    -0.755382

    Singly Occupied:

       1B2g   -0.178524     1B3g   -0.178524

  @DF-ROHF Final Energy:  -149.50975439461448

   => Energetics <=

    Nuclear Repulsion Energy =             30.8735432185416094
    One-Electron Energy =                -266.5264308472985704
    Two-Electron Energy =                  86.1431332341424820
    Total Energy =                       -149.5097543946144754
    Molecular point group: d2h

    Geometry (in Angstrom), charge = 0, multiplicity = 3:

       Center              X                  Y                   Z               Mass
    ------------   -----------------  -----------------  -----------------  -----------------
           O          0.000000000000     0.000000000000    -0.548484848500    15.994914619560
           O          0.000000000000     0.000000000000     0.548484848500    15.994914619560

  Basis Set: 6-31G
    Blend: 6-31G
  Basis Set: (6-31G AUX)
    Blend: CC-PVDZ-JKFIT

  -Total Gradient:
     Atom            X                  Y                   Z
    ------   -----------------  -----------------  -----------------
       1        0.000000000000     0.000000000000     0.239959761361
       2        0.000000000000    -0.000000000000    -0.239959761361

*** Psi4 exiting successfully. Buy a developer a beer!
