                               Psi4 1.2a1.dev429

  ==> Input File <==

--------------------------------------------------------------------------
# density-fitted hartree fock energies and gradients with 6-31g
molecule o2 {
0 3
O 0.0000000000 0.0000000000 0.0000000000
O 0.0000000000 0.0000000000 1.4000000000
}

set basis 6-31g
set reference rohf

energy('scf')
--------------------------------------------------------------------------

    Molecular point group: d2h

    Geometry (in Angstrom), charge = 0, multiplicity = 3:

       Center              X                  Y                   Z               Mass
    ------------   -----------------  -----------------  -----------------  -----------------
           O          0.000000000000     0.000000000000    -0.700000000000    15.994914619560
           O          0.000000000000     0.000000000000     0.700000000000    15.994914619560

  Charge       = 0
  Multiplicity = 3
  Basis Set: 6-31G
    Blend: 6-31G
  Basis Set: (6-31G AUX)
    Blend: CC-PVDZ-JKFIT

    Orbital Energies (a.u.)
    -----------------------

    Doubly Occupied:

       1Ag   -20.778174     1B1u  -20.777710     2Ag    -1.537185
       2B1u   -1.164630     3Ag    -0.668717     1B2u   -0.650512
       1B3u   -0.650512

    Singly Occupied:

       1B3g   -0.291365     1B2g   -0.291365

  @DF-ROHF Final Energy:  -149.47960795816391

   => Energetics <=

    Nuclear Repulsion Energy =             24.1909581069714292
    One-Electron Energy =                -253.6763669326291506
    Two-Electron Energy =                  80.0058008674938179
    Total Energy =                       -149.4796079581639106
*** Psi4 exiting successfully. Buy a developer a beer!
