                               Psi4 1.2.1 release

  ==> Input File <==

--------------------------------------------------------------------------
# density fitted hartree fock
molecule h2o {
0 1
H 0.0000000000 0.0000000000 1.2000000000
H 0.0000000000 1.1125000000 0.0000000000
O 0.0000000000 0.0000000000 0.0000000000
}

set basis 6-31g
energy('hf')

--------------------------------------------------------------------------

    Molecular point group: cs

    Geometry (in Angstrom), charge = 0, multiplicity = 1:

       Center              X                  Y                   Z               Mass
    ------------   -----------------  -----------------  -----------------  -----------------
         H            0.062252648258    -1.132851076037     0.000000000000     1.007825032070
         H           -1.050247351742     0.067148923963     0.000000000000     1.007825032070
         O            0.062252648258     0.067148923963     0.000000000000    15.994914619560

  Charge       = 0
  Multiplicity = 1
  Basis Set: 6-31G
    Blend: 6-31G
  Basis Set: (6-31G AUX)
    Blend: CC-PVDZ-JKFIT

    Orbital Energies [Eh]
    ---------------------

    Doubly Occupied:

       1Ap   -20.609698     2Ap    -1.288780     3Ap    -0.599505
       4Ap    -0.553855     1App   -0.504305

  @DF-RHF Final Energy:   -75.92447674846646

   => Energetics <=

    Nuclear Repulsion Energy =              7.6565551754499293
    One-Electron Energy =                -120.0497703104004898
    Two-Electron Energy =                  36.4687383864841124
    Total Energy =                        -75.9244767484664465

  Dipole Moment: [D]
     X:    -2.0503      Y:    -2.0013      Z:     0.0000     Total:     2.8651

*** Psi4 exiting successfully. Buy a developer a beer!
