                               Psi4 1.2a1.dev429

  ==> Input File <==

--------------------------------------------------------------------------
# density-fitted hartree fock energies and gradients with 6-31g
molecule h2o {
0 1
O 0.0000000000 0.0000000000 0.0000000000
H 0.0000000000 0.0000000000 1.0000000000
H 0.0000000000 0.7794228634 -0.4500000000
}

set basis 6-31g

gradient('mp2')
--------------------------------------------------------------------------

    Molecular point group: cs
  Charge       = 0
  Multiplicity = 1
  Basis Set: 6-31G
    Blend: 6-31G
  Basis Set: (6-31G AUX)
    Blend: CC-PVDZ-JKFIT

    Orbital Energies (a.u.)
    -----------------------

    Doubly Occupied:

       1Ap   -20.546246     2Ap    -1.345766     3Ap    -0.738538
       4Ap    -0.532071     1App   -0.493942

  @DF-RHF Final Energy:   -75.97807757926914

   => Energetics <=

    Nuclear Repulsion Energy =              9.2586673400419084
    One-Electron Energy =                -123.1603655893429305
    Two-Electron Energy =                  37.9236206700318945
    Total Energy =                        -75.9780775792691259
  Basis Set: (6-31G AUX)
    Blend: CC-PVDZ-RI
    Molecular point group: cs

    Geometry (in Angstrom), charge = 0, multiplicity = 1:

       Center              X                  Y                   Z               Mass
    ------------   -----------------  -----------------  -----------------  -----------------
           O          0.043614505491     0.030776590150     0.000000000000    15.994914619560
           H          0.043614505491    -0.969223409850     0.000000000000     1.007825032070
           H         -0.735808357909     0.480776590150     0.000000000000     1.007825032070

  Basis Set: 6-31G
    Blend: 6-31G
  Basis Set: (6-31G AUX)
    Blend: CC-PVDZ-JKFIT
  Basis Set: (6-31G AUX)
    Blend: CC-PVDZ-JKFIT
	 Reference Energy          =     -75.9780775792691401 [Eh]
	 Singles Energy            =      -0.0000000000000000 [Eh]
	 Same-Spin Energy          =      -0.0301320574906191 [Eh]
	 Opposite-Spin Energy      =      -0.0972046748944809 [Eh]
	 Correlation Energy        =      -0.1273367323851000 [Eh]
	 Total Energy              =     -76.1054143116542434 [Eh]

	 ================> DF-SCS-MP2 Energies <==================
	-----------------------------------------------------------
	 SCS Same-Spin Scale       =       0.3333333333333333 [-]
	 SCS Opposite-Spin Scale   =       1.2000000000000000 [-]
	 SCS Same-Spin Energy      =      -0.0100440191635397 [Eh]
	 SCS Opposite-Spin Energy  =      -0.1166456098733770 [Eh]
	 SCS Correlation Energy    =      -0.1266896290369167 [Eh]
	 SCS Total Energy          =     -76.1047672083060576 [Eh]
	-----------------------------------------------------------

  -Total Gradient:
     Atom            X                  Y                   Z
    ------   -----------------  -----------------  -----------------
       1       -0.095560405971     0.062555417912    -0.000000000000
       2        0.013529689285    -0.032553561538    -0.000000000000
       3        0.082030716686    -0.030001856374     0.000000000000

*** Psi4 exiting successfully. Buy a developer a beer!
