                               Psi4 1.2a1.dev429

  ==> Input File <==

--------------------------------------------------------------------------
# density-fitted hartree fock energies and gradients with 6-31g
molecule h2o {
0 1
O 0.0000000000 0.0000000000 0.0000000000
H 0.0000000000 0.0000000000 1.0000000000
H 0.0000000000 1.2216004070 -0.4446261863
}

set basis 6-31g

gradient('mp2')
--------------------------------------------------------------------------

    Molecular point group: cs
  Charge       = 0
  Multiplicity = 1
  Basis Set: 6-31G
    Blend: 6-31G
  Basis Set: (6-31G AUX)
    Blend: CC-PVDZ-JKFIT

    Orbital Energies (a.u.)
    -----------------------

    Doubly Occupied:

       1Ap   -20.588698     2Ap    -1.286370     3Ap    -0.633249
       4Ap    -0.513814     1App   -0.493166

  @DF-RHF Final Energy:   -75.91964947372263

   => Energetics <=

    Nuclear Repulsion Energy =              7.7696008516406945
    One-Electron Energy =                -120.3479066033246738
    Two-Electron Energy =                  36.6586562779613487
    Total Energy =                        -75.9196494737226431
  Basis Set: (6-31G AUX)
    Blend: CC-PVDZ-RI
    Molecular point group: cs

    Geometry (in Angstrom), charge = 0, multiplicity = 1:

       Center              X                  Y                   Z               Mass
    ------------   -----------------  -----------------  -----------------  -----------------
           O          0.068357627369     0.031077294990     0.000000000000    15.994914619560
           H          0.068357627369    -0.968922705010     0.000000000000     1.007825032070
           H         -1.153242779631     0.475703481290     0.000000000000     1.007825032070

  Basis Set: 6-31G
    Blend: 6-31G
  Basis Set: (6-31G AUX)
    Blend: CC-PVDZ-JKFIT
  Basis Set: (6-31G AUX)
    Blend: CC-PVDZ-JKFIT
	 Reference Energy          =     -75.9196494737226288 [Eh]
	 Singles Energy            =      -0.0000000000000000 [Eh]
	 Same-Spin Energy          =      -0.0334531503568909 [Eh]
	 Opposite-Spin Energy      =      -0.1120826243994356 [Eh]
	 Correlation Energy        =      -0.1455357747563265 [Eh]
	 Total Energy              =     -76.0651852484789543 [Eh]

	 ================> DF-SCS-MP2 Energies <==================
	-----------------------------------------------------------
	 SCS Same-Spin Scale       =       0.3333333333333333 [-]
	 SCS Opposite-Spin Scale   =       1.2000000000000000 [-]
	 SCS Same-Spin Energy      =      -0.0111510501189636 [Eh]
	 SCS Opposite-Spin Energy  =      -0.1344991492793228 [Eh]
	 SCS Correlation Energy    =      -0.1456501993982864 [Eh]
	 SCS Total Energy          =     -76.0652996731209186 [Eh]
	-----------------------------------------------------------

  -Total Gradient:
     Atom            X                  Y                   Z
    ------   -----------------  -----------------  -----------------
       1        0.086339913307    -0.034168618434    -0.000000000000
       2        0.013873669127    -0.013663101308     0.000000000000
       3       -0.100213582433     0.047831719742    -0.000000000000

*** Psi4 exiting successfully. Buy a developer a beer!
