                               Psi4 1.2.1 release

  ==> Input File <==

--------------------------------------------------------------------------
# density fitted hartree fock
molecule h2o {
0 1
H 0.0000000000 0.0000000000 1.1125000000
H 0.0000000000 0.9900739719 -0.2652895212
O 0.0000000000 0.0000000000 0.0000000000
}

set basis 6-31g
energy('hf')

--------------------------------------------------------------------------

    Molecular point group: cs

    Geometry (in Angstrom), charge = 0, multiplicity = 1:

       Center              X                  Y                   Z               Mass
    ------------   -----------------  -----------------  -----------------  -----------------
         H            0.055402001548    -1.065092273315     0.000000000000     1.007825032070
         H           -0.934671970352     0.312697247885     0.000000000000     1.007825032070
         O            0.055402001548     0.047407726685     0.000000000000    15.994914619560

  Charge       = 0
  Multiplicity = 1
  Basis Set: 6-31G
    Blend: 6-31G
  Basis Set: (6-31G AUX)
    Blend: CC-PVDZ-JKFIT

    Orbital Energies [Eh]
    ---------------------

    Doubly Occupied:

       1Ap   -20.581531     2Ap    -1.306032     3Ap    -0.654075
       4Ap    -0.542353     1App   -0.496807

  @DF-RHF Final Energy:   -75.96155448056564

   => Energetics <=

    Nuclear Repulsion Energy =              8.2473819953991985
    One-Electron Energy =                -121.2562728862986887
    Two-Electron Energy =                  37.0473364103338483
    Total Energy =                        -75.9615544805656384

  Dipole Moment: [D]
     X:    -2.0864      Y:    -1.6260      Z:     0.0000     Total:     2.6452

*** Psi4 exiting successfully. Buy a developer a beer!
