                               Psi4 1.2a1.dev429

  ==> Input File <==

--------------------------------------------------------------------------
# density-fitted hartree fock energies and gradients with 6-31g
molecule h20 {
0 1
O 0.0000000000 0.0000000000 0.0000000000
H 0.0000000000 0.0000000000 0.7000000000
H 0.0000000000 0.7000000000 -1.2124355653
}

set basis 6-31g

gradient('hf')
--------------------------------------------------------------------------

    Molecular point group: cs
  Charge       = 0
  Multiplicity = 1
  Basis Set: 6-31G
    Blend: 6-31G
  Basis Set: (6-31G AUX)
    Blend: CC-PVDZ-JKFIT

    Orbital Energies (a.u.)
    -----------------------

    Doubly Occupied:

       1Ap   -20.508644     2Ap    -1.361145     3Ap    -0.698378
       1App   -0.464951     4Ap    -0.459959

  @DF-RHF Final Energy:   -75.72700449329119

   => Energetics <=

    Nuclear Repulsion Energy =              9.3314532683705931
    One-Electron Energy =                -123.1307627543864527
    Two-Electron Energy =                  38.0723049927246606
    Total Energy =                        -75.7270044932911901
    Molecular point group: cs

    Geometry (in Angstrom), charge = 0, multiplicity = 1:

       Center              X                  Y                   Z               Mass
    ------------   -----------------  -----------------  -----------------  -----------------
           O          0.039170205645    -0.028674580675     0.000000000000    15.994914619560
           H          0.039170205645    -0.728674580675     0.000000000000     1.007825032070
           H         -0.660829794355     1.183760984625     0.000000000000     1.007825032070

  Basis Set: 6-31G
    Blend: 6-31G
  Basis Set: (6-31G AUX)
    Blend: CC-PVDZ-JKFIT

  -Total Gradient:
     Atom            X                  Y                   Z
    ------   -----------------  -----------------  -----------------
       1        0.002074749473    -0.885623582463     0.000000000000
       2        0.053120549601     0.736901970498     0.000000000000
       3       -0.055195299074     0.148721611965     0.000000000000

*** Psi4 exiting successfully. Buy a developer a beer!
