                               Psi4 1.2a1.dev429

  ==> Input File <==

--------------------------------------------------------------------------
# density-fitted hartree fock energies and gradients with 6-31g
molecule h2o {
0 1
O 0.0000000000 0.0000000000 0.0000000000
H 0.0000000000 0.0000000000 1.2000000000
H 0.0000000000 1.0724622204 -0.8999026536
}

set basis 6-31g

gradient('mp2')
--------------------------------------------------------------------------

    Molecular point group: cs
  Charge       = 0
  Multiplicity = 1
  Basis Set: 6-31G
    Blend: 6-31G
  Basis Set: (6-31G AUX)
    Blend: CC-PVDZ-JKFIT

    Orbital Energies (a.u.)
    -----------------------

    Doubly Occupied:

       1Ap   -20.590337     2Ap    -1.222597     3Ap    -0.577631
       1App   -0.475713     4Ap    -0.466691

  @DF-RHF Final Energy:   -75.84301559926678

   => Energetics <=

    Nuclear Repulsion Energy =              6.7761436608481533
    One-Electron Energy =                -118.5723818069001823
    Two-Electron Energy =                  35.9532225467852555
    Total Energy =                        -75.8430155992667778
  Basis Set: (6-31G AUX)
    Blend: CC-PVDZ-RI
    Molecular point group: cs

    Geometry (in Angstrom), charge = 0, multiplicity = 1:

       Center              X                  Y                   Z               Mass
    ------------   -----------------  -----------------  -----------------  -----------------
           O          0.060012236743     0.016792678246     0.000000000000    15.994914619560
           H          0.060012236743    -1.183207321754     0.000000000000     1.007825032070
           H         -1.012449983657     0.916695331846     0.000000000000     1.007825032070

  Basis Set: 6-31G
    Blend: 6-31G
  Basis Set: (6-31G AUX)
    Blend: CC-PVDZ-JKFIT
  Basis Set: (6-31G AUX)
    Blend: CC-PVDZ-JKFIT
	 Reference Energy          =     -75.8430155992667778 [Eh]
	 Singles Energy            =      -0.0000000000000000 [Eh]
	 Same-Spin Energy          =      -0.0358894197294481 [Eh]
	 Opposite-Spin Energy      =      -0.1218896816766051 [Eh]
	 Correlation Energy        =      -0.1577791014060533 [Eh]
	 Total Energy              =     -76.0007947006728273 [Eh]

	 ================> DF-SCS-MP2 Energies <==================
	-----------------------------------------------------------
	 SCS Same-Spin Scale       =       0.3333333333333333 [-]
	 SCS Opposite-Spin Scale   =       1.2000000000000000 [-]
	 SCS Same-Spin Energy      =      -0.0119631399098160 [Eh]
	 SCS Opposite-Spin Energy  =      -0.1462676180119262 [Eh]
	 SCS Correlation Energy    =      -0.1582307579217422 [Eh]
	 SCS Total Energy          =     -76.0012463571885206 [Eh]
	-----------------------------------------------------------

  -Total Gradient:
     Atom            X                  Y                   Z
    ------   -----------------  -----------------  -----------------
       1        0.029094176611     0.005210850518    -0.000000000000
       2        0.033778738240    -0.095763213453     0.000000000000
       3       -0.062872914851     0.090552362935     0.000000000000

*** Psi4 exiting successfully. Buy a developer a beer!
