                               Psi4 1.2a1.dev429

  ==> Input File <==

--------------------------------------------------------------------------
# density-fitted hartree fock energies and gradients with 6-31g
molecule h2o {
0 1
O 0.0000000000 0.0000000000 0.0000000000
H 0.0000000000 0.0000000000 1.2000000000
H 0.0000000000 1.0832885283 -0.1910129954
}

set basis 6-31g

gradient('mp2')
--------------------------------------------------------------------------

    Molecular point group: cs
  Charge       = 0
  Multiplicity = 1
  Basis Set: 6-31G
    Blend: 6-31G
  Basis Set: (6-31G AUX)
    Blend: CC-PVDZ-JKFIT

    Orbital Energies (a.u.)
    -----------------------

    Doubly Occupied:

       1Ap   -20.600775     2Ap    -1.282555     3Ap    -0.613543
       4Ap    -0.538063     1App   -0.498689

  @DF-RHF Final Energy:   -75.93123504731034

   => Energetics <=

    Nuclear Repulsion Energy =              7.6765541521666059
    One-Electron Energy =                -120.1483280864426888
    Two-Electron Energy =                  36.5405388869657415
    Total Energy =                        -75.9312350473103379
  Basis Set: (6-31G AUX)
    Blend: CC-PVDZ-RI
    Molecular point group: cs

    Geometry (in Angstrom), charge = 0, multiplicity = 1:

       Center              X                  Y                   Z               Mass
    ------------   -----------------  -----------------  -----------------  -----------------
           O          0.060618049181     0.056460326377     0.000000000000    15.994914619560
           H          0.060618049181    -1.143539673623     0.000000000000     1.007825032070
           H         -1.022670479119     0.247473321777     0.000000000000     1.007825032070

  Basis Set: 6-31G
    Blend: 6-31G
  Basis Set: (6-31G AUX)
    Blend: CC-PVDZ-JKFIT
  Basis Set: (6-31G AUX)
    Blend: CC-PVDZ-JKFIT
	 Reference Energy          =     -75.9312350473103379 [Eh]
	 Singles Energy            =      -0.0000000000000000 [Eh]
	 Same-Spin Energy          =      -0.0340205674462287 [Eh]
	 Opposite-Spin Energy      =      -0.1134258714055918 [Eh]
	 Correlation Energy        =      -0.1474464388518205 [Eh]
	 Total Energy              =     -76.0786814861621536 [Eh]

	 ================> DF-SCS-MP2 Energies <==================
	-----------------------------------------------------------
	 SCS Same-Spin Scale       =       0.3333333333333333 [-]
	 SCS Opposite-Spin Scale   =       1.2000000000000000 [-]
	 SCS Same-Spin Energy      =      -0.0113401891487429 [Eh]
	 SCS Opposite-Spin Energy  =      -0.1361110456867101 [Eh]
	 SCS Correlation Energy    =      -0.1474512348354530 [Eh]
	 SCS Total Energy          =     -76.0786862821457959 [Eh]
	-----------------------------------------------------------

  -Total Gradient:
     Atom            X                  Y                   Z
    ------   -----------------  -----------------  -----------------
       1        0.066718302151     0.083341912201     0.000000000000
       2       -0.000598496669    -0.094337642880     0.000000000000
       3       -0.066119805482     0.010995730679    -0.000000000000

*** Psi4 exiting successfully. Buy a developer a beer!
