                               Psi4 1.2a1.dev429

  ==> Input File <==

--------------------------------------------------------------------------
# density-fitted hartree fock energies and gradients with 6-31g
molecule h20 {
0 1
O 0.0000000000 0.0000000000 0.0000000000
H 0.0000000000 0.0000000000 0.9000000000
H 0.0000000000 0.8000000000 0.0000000000
}

set basis 6-31g

gradient('hf')
--------------------------------------------------------------------------

    Molecular point group: cs
  Charge       = 0
  Multiplicity = 1
  Basis Set: 6-31G
    Blend: 6-31G
  Basis Set: (6-31G AUX)
    Blend: CC-PVDZ-JKFIT

    Orbital Energies (a.u.)
    -----------------------

    Doubly Occupied:

       1Ap   -20.547200     2Ap    -1.448160     3Ap    -0.739094
       4Ap    -0.604845     1App   -0.514460

  @DF-RHF Final Energy:   -75.92767640342009

   => Energetics <=

    Nuclear Repulsion Energy =             10.4350272477390806
    One-Electron Energy =                -125.0178887407952857
    Two-Electron Energy =                  38.6551850896361131
    Total Energy =                        -75.9276764034200937
    Molecular point group: cs

    Geometry (in Angstrom), charge = 0, multiplicity = 1:

       Center              X                  Y                   Z               Mass
    ------------   -----------------  -----------------  -----------------  -----------------
           O          0.044765949309     0.050361692973     0.000000000000    15.994914619560
           H          0.044765949309    -0.849638307027     0.000000000000     1.007825032070
           H         -0.755234050691     0.050361692973     0.000000000000     1.007825032070

  Basis Set: 6-31G
    Blend: 6-31G
  Basis Set: (6-31G AUX)
    Blend: CC-PVDZ-JKFIT

  -Total Gradient:
     Atom            X                  Y                   Z
    ------   -----------------  -----------------  -----------------
       1       -0.250106875496    -0.019702472912     0.000000000000
       2       -0.057411984107     0.084290954862     0.000000000000
       3        0.307518859603    -0.064588481951     0.000000000000

*** Psi4 exiting successfully. Buy a developer a beer!
