                               Psi4 1.2a1.dev429

  ==> Input File <==

--------------------------------------------------------------------------
# density-fitted hartree fock energies and gradients with 6-31g
molecule h20 {
0 1
O 0.0000000000 0.0000000000 0.0000000000
O 0.0000000000 0.0000000000 1.2454545455
}

set basis 6-31g

gradient('hf')
--------------------------------------------------------------------------

    Molecular point group: d2h
  Charge       = 0
  Multiplicity = 1
  Basis Set: 6-31G
    Blend: 6-31G
  Basis Set: (6-31G AUX)
    Blend: CC-PVDZ-JKFIT

    Orbital Energies (a.u.)
    -----------------------

    Doubly Occupied:

       1Ag   -20.764127     1B1u  -20.763399     2Ag    -1.659256
       2B1u   -1.118916     1B3u   -0.770307     3Ag    -0.716848
       1B2u   -0.640584     1B2g   -0.501205

  @DF-RHF Final Energy:  -149.45755513548838

   => Energetics <=

    Nuclear Repulsion Energy =             27.1927558272820242
    One-Electron Energy =                -259.4313365937073854
    Two-Electron Energy =                  82.7810256309369805
    Total Energy =                       -149.4575551354884055
    Molecular point group: d2h

    Geometry (in Angstrom), charge = 0, multiplicity = 1:

       Center              X                  Y                   Z               Mass
    ------------   -----------------  -----------------  -----------------  -----------------
           O          0.000000000000     0.000000000000    -0.622727272750    15.994914619560
           O          0.000000000000     0.000000000000     0.622727272750    15.994914619560

  Basis Set: 6-31G
    Blend: 6-31G
  Basis Set: (6-31G AUX)
    Blend: CC-PVDZ-JKFIT

  -Total Gradient:
     Atom            X                  Y                   Z
    ------   -----------------  -----------------  -----------------
       1        0.000000000000    -0.000000000000    -0.076781174098
       2       -0.000000000000     0.000000000000     0.076781174098

*** Psi4 exiting successfully. Buy a developer a beer!
