                               Psi4 1.2a1.dev429

  ==> Input File <==

--------------------------------------------------------------------------
# density-fitted hartree fock energies and gradients with 6-31g
molecule h2o {
0 1
O 0.0000000000 0.0000000000 0.0000000000
H 0.0000000000 0.0000000000 1.0000000000
H 0.0000000000 0.4000000000 -0.6928203230
}

set basis 6-31g

gradient('mp2')
--------------------------------------------------------------------------

    Molecular point group: cs
  Charge       = 0
  Multiplicity = 1
  Basis Set: 6-31G
    Blend: 6-31G
  Basis Set: (6-31G AUX)
    Blend: CC-PVDZ-JKFIT

    Orbital Energies (a.u.)
    -----------------------

    Doubly Occupied:

       1Ap   -20.512630     2Ap    -1.351317     3Ap    -0.800424
       4Ap    -0.493603     1App   -0.483979

  @DF-RHF Final Energy:   -75.92587320618138

   => Energetics <=

    Nuclear Repulsion Energy =              9.8294130444290477
    One-Electron Energy =                -124.2266672339946609
    Two-Electron Energy =                  38.4713809833842362
    Total Energy =                        -75.9258732061813788
  Basis Set: (6-31G AUX)
    Blend: CC-PVDZ-RI
    Molecular point group: cs

    Geometry (in Angstrom), charge = 0, multiplicity = 1:

       Center              X                  Y                   Z               Mass
    ------------   -----------------  -----------------  -----------------  -----------------
           O          0.022382974654     0.017188987312     0.000000000000    15.994914619560
           H          0.022382974654    -0.982811012688     0.000000000000     1.007825032070
           H         -0.377617025346     0.710009310312     0.000000000000     1.007825032070

  Basis Set: 6-31G
    Blend: 6-31G
  Basis Set: (6-31G AUX)
    Blend: CC-PVDZ-JKFIT
  Basis Set: (6-31G AUX)
    Blend: CC-PVDZ-JKFIT
	 Reference Energy          =     -75.9258732061813788 [Eh]
	 Singles Energy            =      -0.0000000000000000 [Eh]
	 Same-Spin Energy          =      -0.0294118368027780 [Eh]
	 Opposite-Spin Energy      =      -0.0927524698035197 [Eh]
	 Correlation Energy        =      -0.1221643066062977 [Eh]
	 Total Energy              =     -76.0480375127876727 [Eh]

	 ================> DF-SCS-MP2 Energies <==================
	-----------------------------------------------------------
	 SCS Same-Spin Scale       =       0.3333333333333333 [-]
	 SCS Opposite-Spin Scale   =       1.2000000000000000 [-]
	 SCS Same-Spin Energy      =      -0.0098039456009260 [Eh]
	 SCS Opposite-Spin Energy  =      -0.1113029637642237 [Eh]
	 SCS Correlation Energy    =      -0.1211069093651497 [Eh]
	 SCS Total Energy          =     -76.0469801155465319 [Eh]
	-----------------------------------------------------------

  -Total Gradient:
     Atom            X                  Y                   Z
    ------   -----------------  -----------------  -----------------
       1       -0.204114445666     0.296378796426    -0.000000000000
       2        0.027023157368    -0.057205580359     0.000000000000
       3        0.177091288298    -0.239173216068    -0.000000000000

*** Psi4 exiting successfully. Buy a developer a beer!
