                               Psi4 1.2a1.dev429

  ==> Input File <==

--------------------------------------------------------------------------
# density-fitted hartree fock energies and gradients with 6-31g
molecule h2o {
0 1
O 0.0000000000 0.0000000000 0.0000000000
H 0.0000000000 0.0000000000 1.5000000000
H 0.0000000000 0.5500000000 -0.9526279442
}

set basis 6-31g

gradient('mp2')
--------------------------------------------------------------------------

    Molecular point group: cs
  Charge       = 0
  Multiplicity = 1
  Basis Set: 6-31G
    Blend: 6-31G
  Basis Set: (6-31G AUX)
    Blend: CC-PVDZ-JKFIT

    Orbital Energies (a.u.)
    -----------------------

    Doubly Occupied:

       1Ap   -20.551416     2Ap    -1.208754     3Ap    -0.581888
       1App   -0.451543     4Ap    -0.433512

  @DF-RHF Final Energy:   -75.81166513577577

   => Energetics <=

    Nuclear Repulsion Energy =              6.8813706038091080
    One-Electron Energy =                -118.9318467379593613
    Two-Electron Energy =                  36.2388109983744897
    Total Energy =                        -75.8116651357757689
  Basis Set: (6-31G AUX)
    Blend: CC-PVDZ-RI
    Molecular point group: cs

    Geometry (in Angstrom), charge = 0, multiplicity = 1:

       Center              X                  Y                   Z               Mass
    ------------   -----------------  -----------------  -----------------  -----------------
           O          0.030776590150     0.030629537129     0.000000000000    15.994914619560
           H          0.030776590150    -1.469370462871     0.000000000000     1.007825032070
           H         -0.519223409850     0.983257481329     0.000000000000     1.007825032070

  Basis Set: 6-31G
    Blend: 6-31G
  Basis Set: (6-31G AUX)
    Blend: CC-PVDZ-JKFIT
  Basis Set: (6-31G AUX)
    Blend: CC-PVDZ-JKFIT
	 Reference Energy          =     -75.8116651357757689 [Eh]
	 Singles Energy            =      -0.0000000000000000 [Eh]
	 Same-Spin Energy          =      -0.0353837163734818 [Eh]
	 Opposite-Spin Energy      =      -0.1188021058385259 [Eh]
	 Correlation Energy        =      -0.1541858222120077 [Eh]
	 Total Energy              =     -75.9658509579877830 [Eh]

	 ================> DF-SCS-MP2 Energies <==================
	-----------------------------------------------------------
	 SCS Same-Spin Scale       =       0.3333333333333333 [-]
	 SCS Opposite-Spin Scale   =       1.2000000000000000 [-]
	 SCS Same-Spin Energy      =      -0.0117945721244939 [Eh]
	 SCS Opposite-Spin Energy  =      -0.1425625270062311 [Eh]
	 SCS Correlation Energy    =      -0.1543570991307250 [Eh]
	 SCS Total Energy          =     -75.9660222349064895 [Eh]
	-----------------------------------------------------------

  -Total Gradient:
     Atom            X                  Y                   Z
    ------   -----------------  -----------------  -----------------
       1       -0.040139661034     0.014586869825     0.000000000000
       2        0.035518238836    -0.103450253326     0.000000000000
       3        0.004621422197     0.088863383501    -0.000000000000

*** Psi4 exiting successfully. Buy a developer a beer!
