                               Psi4 1.3.1 release

  ==> Input File <==

--------------------------------------------------------------------------
# density fitted hartree fock
molecule h2o {
0 1
H 0.0000000000 0.0000000000 0.9500000000
H 0.0000000000 0.8899477436 -0.1341380396
O 0.0000000000 0.0000000000 0.0000000000
}

set basis 6-31g
energy('hf')

--------------------------------------------------------------------------

    Molecular point group: cs

    Geometry (in Angstrom), charge = 0, multiplicity = 1:

       Center              X                  Y                   Z               Mass
    ------------   -----------------  -----------------  -----------------  -----------------
         H            0.049799194479    -0.904346456041     0.000000000000     1.007825032230
         H           -0.840148549121     0.179791583559     0.000000000000     1.007825032230
         O            0.049799194479     0.045653543959     0.000000000000    15.994914619570

  Charge       = 0
  Multiplicity = 1
  Basis Set: 6-31G
    Blend: 6-31G
  Basis Set: (6-31G AUX)
    Blend: CC-PVDZ-JKFIT

    Orbital Energies [Eh]
    ---------------------

    Doubly Occupied:

       1Ap   -20.557915     2Ap    -1.382536     3Ap    -0.717056
       4Ap    -0.576919     1App   -0.506028

  @DF-RHF Final Energy:   -75.97663113095419

   => Energetics <=

    Nuclear Repulsion Energy =              9.5373023831355823
    One-Electron Energy =                -123.5469609264516464
    Two-Electron Energy =                  38.0330274123618679
    Total Energy =                        -75.9766311309541891

  Dipole Moment: [D]
     X:    -2.0464      Y:    -1.7817      Z:     0.0000     Total:     2.7133

*** Psi4 exiting successfully. Buy a developer a beer!
