                               Psi4 1.2a1.dev429

  ==> Input File <==

--------------------------------------------------------------------------
# density-fitted hartree fock energies and gradients with 6-31g
molecule h20 {
0 1
O 0.0000000000 0.0000000000 0.0000000000
H 0.0000000000 0.0000000000 0.7000000000
H 0.0000000000 1.3000000000 0.0000000000
}

set basis 6-31g

gradient('hf')
--------------------------------------------------------------------------

    Molecular point group: cs
  Charge       = 0
  Multiplicity = 1
  Basis Set: 6-31G
    Blend: 6-31G
  Basis Set: (6-31G AUX)
    Blend: CC-PVDZ-JKFIT

    Orbital Energies (a.u.)
    -----------------------

    Doubly Occupied:

       1Ap   -20.574114     2Ap    -1.436839     3Ap    -0.697531
       4Ap    -0.548760     1App   -0.514897

  @DF-RHF Final Energy:   -75.78364293160739

   => Energetics <=

    Nuclear Repulsion Energy =              9.6626186864513066
    One-Electron Energy =                -123.3482399020591203
    Two-Electron Energy =                  37.9019782840004353
    Total Energy =                        -75.7836429316073747
    Molecular point group: cs

    Geometry (in Angstrom), charge = 0, multiplicity = 1:

       Center              X                  Y                   Z               Mass
    ------------   -----------------  -----------------  -----------------  -----------------
           O          0.072744667627     0.039170205645     0.000000000000    15.994914619560
           H          0.072744667627    -0.660829794355     0.000000000000     1.007825032070
           H         -1.227255332373     0.039170205645     0.000000000000     1.007825032070

  Basis Set: 6-31G
    Blend: 6-31G
  Basis Set: (6-31G AUX)
    Blend: CC-PVDZ-JKFIT

  -Total Gradient:
     Atom            X                  Y                   Z
    ------   -----------------  -----------------  -----------------
       1        0.163471069148    -0.729068512479     0.000000000000
       2       -0.040182563676     0.750705277446     0.000000000000
       3       -0.123288505472    -0.021636764967     0.000000000000

*** Psi4 exiting successfully. Buy a developer a beer!
