                               Psi4 1.2a1.dev429

  ==> Input File <==

--------------------------------------------------------------------------
# density-fitted hartree fock energies and gradients with 6-31g
molecule h20 {
0 1
O 0.0000000000 0.0000000000 0.0000000000
H 0.0000000000 0.0000000000 1.4000000000
H 0.0000000000 0.6893654271 -0.1215537244
}

set basis 6-31g

gradient('hf')
--------------------------------------------------------------------------

    Molecular point group: cs
  Charge       = 0
  Multiplicity = 1
  Basis Set: 6-31G
    Blend: 6-31G
  Basis Set: (6-31G AUX)
    Blend: CC-PVDZ-JKFIT

    Orbital Energies (a.u.)
    -----------------------

    Doubly Occupied:

       1Ap   -20.571817     2Ap    -1.421591     3Ap    -0.694829
       4Ap    -0.521325     1App   -0.509080

  @DF-RHF Final Energy:   -75.76475174465921

   => Energetics <=

    Nuclear Repulsion Energy =              9.3883995040064239
    One-Electron Energy =                -122.8690197030783935
    Two-Electron Energy =                  37.7158684544127567
    Total Energy =                        -75.7647517446592076
    Molecular point group: cs

    Geometry (in Angstrom), charge = 0, multiplicity = 1:

       Center              X                  Y                   Z               Mass
    ------------   -----------------  -----------------  -----------------  -----------------
           O          0.038575122206     0.071538576460     0.000000000000    15.994914619560
           H          0.038575122206    -1.328461423540     0.000000000000     1.007825032070
           H         -0.650790304894     0.193092300860     0.000000000000     1.007825032070

  Basis Set: 6-31G
    Blend: 6-31G
  Basis Set: (6-31G AUX)
    Blend: CC-PVDZ-JKFIT

  -Total Gradient:
     Atom            X                  Y                   Z
    ------   -----------------  -----------------  -----------------
       1       -0.732557795552     0.272324683080     0.000000000000
       2       -0.004420501769    -0.133398134965     0.000000000000
       3        0.736978297320    -0.138926548114     0.000000000000

*** Psi4 exiting successfully. Buy a developer a beer!
