                               Psi4 1.2a1.dev429

  ==> Input File <==

--------------------------------------------------------------------------
# density-fitted hartree fock energies and gradients with 6-31g
molecule h2o {
0 1
O 0.0000000000 0.0000000000 0.0000000000
H 0.0000000000 0.0000000000 1.1000000000
H 0.0000000000 0.9526279442 -0.5500000000
}

set basis 6-31g

gradient('mp2')
--------------------------------------------------------------------------

    Molecular point group: c2v
  Charge       = 0
  Multiplicity = 1
  Basis Set: 6-31G
    Blend: 6-31G
  Basis Set: (6-31G AUX)
    Blend: CC-PVDZ-JKFIT

    Orbital Energies (a.u.)
    -----------------------

    Doubly Occupied:

       1A1   -20.572587     2A1    -1.278432     1B2    -0.654081
       3A1    -0.511211     1B1    -0.485699

  @DF-RHF Final Energy:   -75.94716522467959

   => Energetics <=

    Nuclear Repulsion Energy =              7.9748690374016027
    One-Electron Energy =                -120.8400471826303857
    Two-Electron Energy =                  36.9180129205491809
    Total Energy =                        -75.9471652246795941
  Basis Set: (6-31G AUX)
    Blend: CC-PVDZ-RI
    Molecular point group: c2v

    Geometry (in Angstrom), charge = 0, multiplicity = 1:

       Center              X                  Y                   Z               Mass
    ------------   -----------------  -----------------  -----------------  -----------------
           O          0.000000000000     0.000000000000    -0.061553180302    15.994914619560
           H          0.000000000000    -0.952627944172     0.488446819714     1.007825032070
           H         -0.000000000000     0.952627944172     0.488446819714     1.007825032070

  Basis Set: 6-31G
    Blend: 6-31G
  Basis Set: (6-31G AUX)
    Blend: CC-PVDZ-JKFIT
  Basis Set: (6-31G AUX)
    Blend: CC-PVDZ-JKFIT
	 Reference Energy          =     -75.9471652246795941 [Eh]
	 Singles Energy            =      -0.0000000000000000 [Eh]
	 Same-Spin Energy          =      -0.0328700280366755 [Eh]
	 Opposite-Spin Energy      =      -0.1075205161035640 [Eh]
	 Correlation Energy        =      -0.1403905441402395 [Eh]
	 Total Energy              =     -76.0875557688198398 [Eh]

	 ================> DF-SCS-MP2 Energies <==================
	-----------------------------------------------------------
	 SCS Same-Spin Scale       =       0.3333333333333333 [-]
	 SCS Opposite-Spin Scale   =       1.2000000000000000 [-]
	 SCS Same-Spin Energy      =      -0.0109566760122252 [Eh]
	 SCS Opposite-Spin Energy  =      -0.1290246193242768 [Eh]
	 SCS Correlation Energy    =      -0.1399812953365020 [Eh]
	 SCS Total Energy          =     -76.0871465200160912 [Eh]
	-----------------------------------------------------------

  -Total Gradient:
     Atom            X                  Y                   Z
    ------   -----------------  -----------------  -----------------
       1       -0.000000000000     0.000000000003    -0.042863864344
       2        0.000000000000    -0.080529842020     0.021431932173
       3        0.000000000000     0.080529842017     0.021431932171

*** Psi4 exiting successfully. Buy a developer a beer!
