                               Psi4 1.2a1.dev429

  ==> Input File <==

--------------------------------------------------------------------------
# density-fitted hartree fock energies and gradients with 6-31g
molecule h2o {
0 1
O 0.0000000000 0.0000000000 0.0000000000
H 0.0000000000 0.0000000000 0.9000000000
H 0.0000000000 1.3000000000 0.0000000000
}

set basis 6-31g

gradient('mp2')
--------------------------------------------------------------------------

    Molecular point group: cs
  Charge       = 0
  Multiplicity = 1
  Basis Set: 6-31G
    Blend: 6-31G
  Basis Set: (6-31G AUX)
    Blend: CC-PVDZ-JKFIT

    Orbital Energies (a.u.)
    -----------------------

    Doubly Occupied:

       1Ap   -20.594798     2Ap    -1.336702     3Ap    -0.647646
       4Ap    -0.541640     1App   -0.507480

  @DF-RHF Final Energy:   -75.91315739923812

   => Energetics <=

    Nuclear Repulsion Energy =              8.2949535924723872
    One-Electron Energy =                -121.1596907189917829
    Two-Electron Energy =                  36.9515797272812918
    Total Energy =                        -75.9131573992381163
  Basis Set: (6-31G AUX)
    Blend: CC-PVDZ-RI
    Molecular point group: cs

    Geometry (in Angstrom), charge = 0, multiplicity = 1:

       Center              X                  Y                   Z               Mass
    ------------   -----------------  -----------------  -----------------  -----------------
           O          0.072744667627     0.050361692973     0.000000000000    15.994914619560
           H          0.072744667627    -0.849638307027     0.000000000000     1.007825032070
           H         -1.227255332373     0.050361692973     0.000000000000     1.007825032070

  Basis Set: 6-31G
    Blend: 6-31G
  Basis Set: (6-31G AUX)
    Blend: CC-PVDZ-JKFIT
  Basis Set: (6-31G AUX)
    Blend: CC-PVDZ-JKFIT
	 Reference Energy          =     -75.9131573992381163 [Eh]
	 Singles Energy            =      -0.0000000000000000 [Eh]
	 Same-Spin Energy          =      -0.0325017835678295 [Eh]
	 Opposite-Spin Energy      =      -0.1101690647040981 [Eh]
	 Correlation Energy        =      -0.1426708482719276 [Eh]
	 Total Energy              =     -76.0558282475100498 [Eh]

	 ================> DF-SCS-MP2 Energies <==================
	-----------------------------------------------------------
	 SCS Same-Spin Scale       =       0.3333333333333333 [-]
	 SCS Opposite-Spin Scale   =       1.2000000000000000 [-]
	 SCS Same-Spin Energy      =      -0.0108339278559432 [Eh]
	 SCS Opposite-Spin Energy  =      -0.1322028776449177 [Eh]
	 SCS Correlation Energy    =      -0.1430368055008609 [Eh]
	 SCS Total Energy          =     -76.0561942047389721 [Eh]
	-----------------------------------------------------------

  -Total Gradient:
     Atom            X                  Y                   Z
    ------   -----------------  -----------------  -----------------
       1        0.120611701532    -0.096383955579    -0.000000000000
       2       -0.021489947399     0.111261613914     0.000000000000
       3       -0.099121754133    -0.014877658335     0.000000000000

*** Psi4 exiting successfully. Buy a developer a beer!
