                               Psi4 1.2a1.dev429

  ==> Input File <==

--------------------------------------------------------------------------
# density-fitted hartree fock energies and gradients with 6-31g
molecule h2o {
0 1
O 0.0000000000 0.0000000000 0.0000000000
H 0.0000000000 0.0000000000 0.8000000000
H 0.0000000000 0.6128355545 -0.5142300877
}

set basis 6-31g

gradient('mp2')
--------------------------------------------------------------------------

    Molecular point group: c2v
  Charge       = 0
  Multiplicity = 1
  Basis Set: 6-31G
    Blend: 6-31G
  Basis Set: (6-31G AUX)
    Blend: CC-PVDZ-JKFIT

    Orbital Energies (a.u.)
    -----------------------

    Doubly Occupied:

       1A1   -20.515264     2A1    -1.424216     1B2    -0.861934
       3A1    -0.538856     1B1    -0.506305

  @DF-RHF Final Energy:   -75.91652851796147

   => Energetics <=

    Nuclear Repulsion Energy =             10.9484707014808880
    One-Electron Energy =                -126.0368472492015286
    Two-Electron Energy =                  39.1718480297591682
    Total Energy =                        -75.9165285179614671
  Basis Set: (6-31G AUX)
    Blend: CC-PVDZ-RI
    Molecular point group: c2v

    Geometry (in Angstrom), charge = 0, multiplicity = 1:

       Center              X                  Y                   Z               Mass
    ------------   -----------------  -----------------  -----------------  -----------------
           O          0.000000000000     0.000000000000    -0.037837815366    15.994914619560
           H          0.000000000000    -0.725046229608     0.300256794039     1.007825032070
           H         -0.000000000000     0.725046229608     0.300256794039     1.007825032070

  Basis Set: 6-31G
    Blend: 6-31G
  Basis Set: (6-31G AUX)
    Blend: CC-PVDZ-JKFIT
  Basis Set: (6-31G AUX)
    Blend: CC-PVDZ-JKFIT
	 Reference Energy          =     -75.9165285179614671 [Eh]
	 Singles Energy            =      -0.0000000000000000 [Eh]
	 Same-Spin Energy          =      -0.0274006394473833 [Eh]
	 Opposite-Spin Energy      =      -0.0872314472773403 [Eh]
	 Correlation Energy        =      -0.1146320867247236 [Eh]
	 Total Energy              =     -76.0311606046861925 [Eh]

	 ================> DF-SCS-MP2 Energies <==================
	-----------------------------------------------------------
	 SCS Same-Spin Scale       =       0.3333333333333333 [-]
	 SCS Opposite-Spin Scale   =       1.2000000000000000 [-]
	 SCS Same-Spin Energy      =      -0.0091335464824611 [Eh]
	 SCS Opposite-Spin Energy  =      -0.1046777367328084 [Eh]
	 SCS Correlation Energy    =      -0.1138112832152695 [Eh]
	 SCS Total Energy          =     -76.0303398011767371 [Eh]
	-----------------------------------------------------------

  -Total Gradient:
     Atom            X                  Y                   Z
    ------   -----------------  -----------------  -----------------
       1       -0.000000000000     0.000000000025     0.279438479237
       2        0.000000000000     0.264134355936    -0.139719239614
       3       -0.000000000000    -0.264134355961    -0.139719239623

*** Psi4 exiting successfully. Buy a developer a beer!
