                               Psi4 1.2a1.dev429

  ==> Input File <==

--------------------------------------------------------------------------
# density-fitted hartree fock energies and gradients with 6-31g
molecule h2o {
0 1
O 0.0000000000 0.0000000000 0.0000000000
H 0.0000000000 0.0000000000 0.8000000000
H 0.0000000000 0.2736161147 -0.7517540966
}

set basis 6-31g

gradient('mp2')
--------------------------------------------------------------------------

    Molecular point group: c2v
  Charge       = 0
  Multiplicity = 1
  Basis Set: 6-31G
    Blend: 6-31G
  Basis Set: (6-31G AUX)
    Blend: CC-PVDZ-JKFIT

    Orbital Energies (a.u.)
    -----------------------

    Doubly Occupied:

       1A1   -20.500107     2A1    -1.394985     1B2    -0.894565
       3A1    -0.503870     1B1    -0.498671

  @DF-RHF Final Energy:   -75.89857620433338

   => Energetics <=

    Nuclear Repulsion Energy =             10.9193820593974049
    One-Electron Energy =                -126.0515192009996071
    Two-Electron Energy =                  39.2335609372688197
    Total Energy =                        -75.8985762043333807
  Basis Set: (6-31G AUX)
    Blend: CC-PVDZ-RI
    Molecular point group: c2v

    Geometry (in Angstrom), charge = 0, multiplicity = 1:

       Center              X                  Y                   Z               Mass
    ------------   -----------------  -----------------  -----------------  -----------------
           O         -0.000000000000     0.000000000000    -0.015547051041    15.994914619560
           H          0.000000000000    -0.787846202399     0.123371491115     1.007825032070
           H         -0.000000000000     0.787846202399     0.123371491115     1.007825032070

  Basis Set: 6-31G
    Blend: 6-31G
  Basis Set: (6-31G AUX)
    Blend: CC-PVDZ-JKFIT
  Basis Set: (6-31G AUX)
    Blend: CC-PVDZ-JKFIT
	 Reference Energy          =     -75.8985762043333807 [Eh]
	 Singles Energy            =      -0.0000000000000000 [Eh]
	 Same-Spin Energy          =      -0.0274635334093232 [Eh]
	 Opposite-Spin Energy      =      -0.0867880727103274 [Eh]
	 Correlation Energy        =      -0.1142516061196506 [Eh]
	 Total Energy              =     -76.0128278104530324 [Eh]

	 ================> DF-SCS-MP2 Energies <==================
	-----------------------------------------------------------
	 SCS Same-Spin Scale       =       0.3333333333333333 [-]
	 SCS Opposite-Spin Scale   =       1.2000000000000000 [-]
	 SCS Same-Spin Energy      =      -0.0091545111364411 [Eh]
	 SCS Opposite-Spin Energy  =      -0.1041456872523929 [Eh]
	 SCS Correlation Energy    =      -0.1133001983888340 [Eh]
	 SCS Total Energy          =     -76.0118764027222085 [Eh]
	-----------------------------------------------------------

  -Total Gradient:
     Atom            X                  Y                   Z
    ------   -----------------  -----------------  -----------------
       1       -0.000000000000     0.000000000065     0.140176334924
       2       -0.000000000000     0.272932956583    -0.070088167458
       3        0.000000000000    -0.272932956648    -0.070088167466

*** Psi4 exiting successfully. Buy a developer a beer!
