                               Psi4 1.3.1 release

  ==> Input File <==

--------------------------------------------------------------------------
# density fitted hartree fock
molecule h2o {
0 1
H 0.0000000000 0.0000000000 1.2000000000
H 0.0000000000 0.8974834175 -0.0672570842
O 0.0000000000 0.0000000000 0.0000000000
}

set basis 6-31g
energy('hf')

--------------------------------------------------------------------------

    Molecular point group: cs

    Geometry (in Angstrom), charge = 0, multiplicity = 1:

       Center              X                  Y                   Z               Mass
    ------------   -----------------  -----------------  -----------------  -----------------
         H            0.050220871474    -1.136614610055     0.000000000000     1.007825032230
         H           -0.847262546026     0.130642474145     0.000000000000     1.007825032230
         O            0.050220871474     0.063385389945     0.000000000000    15.994914619570

  Charge       = 0
  Multiplicity = 1
  Basis Set: 6-31G
    Blend: 6-31G
  Basis Set: (6-31G AUX)
    Blend: CC-PVDZ-JKFIT

    Orbital Energies [Eh]
    ---------------------

    Doubly Occupied:

       1Ap   -20.584169     2Ap    -1.341945     3Ap    -0.659448
       4Ap    -0.554810     1App   -0.504933

  @DF-RHF Final Energy:   -75.93906900660063

   => Energetics <=

    Nuclear Repulsion Energy =              8.5724183389340123
    One-Electron Energy =                -121.7323572026983527
    Two-Electron Energy =                  37.2208698571637129
    Total Energy =                        -75.9390690066006186

  Dipole Moment: [D]
     X:    -2.0538      Y:    -1.8874      Z:     0.0000     Total:     2.7893

*** Psi4 exiting successfully. Buy a developer a beer!
