                               Psi4 1.2a1.dev429

  ==> Input File <==

--------------------------------------------------------------------------
# density-fitted hartree fock energies and gradients with 6-31g
molecule o2 {
0 3
O 0.0000000000 0.0000000000 0.0000000000
O 0.0000000000 0.0000000000 1.1323232323
}

set basis 6-31g
set reference rohf

gradient('scf')
--------------------------------------------------------------------------

    Molecular point group: d2h
  Charge       = 0
  Multiplicity = 3
  Basis Set: 6-31G
    Blend: 6-31G
  Basis Set: (6-31G AUX)
    Blend: CC-PVDZ-JKFIT

    Orbital Energies (a.u.)
    -----------------------

    Doubly Occupied:

       1Ag   -20.734766     1B1u  -20.733594     2Ag    -1.769090
       2B1u   -1.072217     1B2u   -0.749327     1B3u   -0.749327
       3Ag    -0.745314

    Singly Occupied:

       1B2g   -0.196145     1B3g   -0.196145

  @DF-ROHF Final Energy:  -149.52191653730401

   => Energetics <=

    Nuclear Repulsion Energy =             29.9096056529440872
    One-Electron Energy =                -264.7099385956378796
    Two-Electron Energy =                  85.2784164053897769
    Total Energy =                       -149.5219165373040084
    Molecular point group: d2h

    Geometry (in Angstrom), charge = 0, multiplicity = 3:

       Center              X                  Y                   Z               Mass
    ------------   -----------------  -----------------  -----------------  -----------------
           O          0.000000000000     0.000000000000    -0.566161616150    15.994914619560
           O          0.000000000000     0.000000000000     0.566161616150    15.994914619560

  Basis Set: 6-31G
    Blend: 6-31G
  Basis Set: (6-31G AUX)
    Blend: CC-PVDZ-JKFIT

  -Total Gradient:
     Atom            X                  Y                   Z
    ------   -----------------  -----------------  -----------------
       1       -0.000000000000     0.000000000000     0.128726752320
       2        0.000000000000    -0.000000000000    -0.128726752320

*** Psi4 exiting successfully. Buy a developer a beer!
