                               Psi4 1.2a1.dev429

  ==> Input File <==

--------------------------------------------------------------------------
# density-fitted hartree fock energies and gradients with 6-31g
molecule h20 {
0 1
O 0.0000000000 0.0000000000 0.0000000000
O 0.0000000000 0.0000000000 1.1323232323
}

set basis 6-31g

gradient('hf')
--------------------------------------------------------------------------

    Molecular point group: d2h
  Charge       = 0
  Multiplicity = 1
  Basis Set: 6-31G
    Blend: 6-31G
  Basis Set: (6-31G AUX)
    Blend: CC-PVDZ-JKFIT

    Orbital Energies (a.u.)
    -----------------------

    Doubly Occupied:

       1Ag   -20.744605     1B1u  -20.743422     2Ag    -1.774650
       2B1u   -1.076458     1B3u   -0.813428     3Ag    -0.749819
       1B2u   -0.694779     1B2g   -0.457035

  @DF-RHF Final Energy:  -149.45429083940525

   => Energetics <=

    Nuclear Repulsion Energy =             29.9096056529440872
    One-Electron Energy =                -264.6194037544556181
    Two-Electron Energy =                  85.2555072621062919
    Total Energy =                       -149.4542908394052461
    Molecular point group: d2h

    Geometry (in Angstrom), charge = 0, multiplicity = 1:

       Center              X                  Y                   Z               Mass
    ------------   -----------------  -----------------  -----------------  -----------------
           O          0.000000000000     0.000000000000    -0.566161616150    15.994914619560
           O          0.000000000000     0.000000000000     0.566161616150    15.994914619560

  Basis Set: 6-31G
    Blend: 6-31G
  Basis Set: (6-31G AUX)
    Blend: CC-PVDZ-JKFIT

  -Total Gradient:
     Atom            X                  Y                   Z
    ------   -----------------  -----------------  -----------------
       1       -0.000000000000     0.000000000000     0.136352303388
       2        0.000000000000     0.000000000000    -0.136352303388

*** Psi4 exiting successfully. Buy a developer a beer!
