                               Psi4 1.2a1.dev429

  ==> Input File <==

--------------------------------------------------------------------------
# density-fitted hartree fock energies and gradients with 6-31g
molecule h2o {
0 1
O 0.0000000000 0.0000000000 0.0000000000
H 0.0000000000 0.0000000000 1.3000000000
H 0.0000000000 0.1910129954 -1.0832885283
}

set basis 6-31g

gradient('mp2')
--------------------------------------------------------------------------

    Molecular point group: cs
  Charge       = 0
  Multiplicity = 1
  Basis Set: 6-31G
    Blend: 6-31G
  Basis Set: (6-31G AUX)
    Blend: CC-PVDZ-JKFIT

    Orbital Energies (a.u.)
    -----------------------

    Doubly Occupied:

       1Ap   -20.509851     2Ap    -1.194859     3Ap    -0.609764
       1App   -0.429630     4Ap    -0.428364

  @DF-RHF Final Energy:   -75.84271084190397

   => Energetics <=

    Nuclear Repulsion Energy =              7.3263635061585450
    One-Electron Energy =                -119.9932124252864867
    Two-Electron Energy =                  36.8241380772239779
    Total Energy =                        -75.8427108419039655
  Basis Set: (6-31G AUX)
    Blend: CC-PVDZ-RI
    Molecular point group: cs

    Geometry (in Angstrom), charge = 0, multiplicity = 1:

       Center              X                  Y                   Z               Mass
    ------------   -----------------  -----------------  -----------------  -----------------
           O          0.010688597587     0.012126618446     0.000000000000    15.994914619560
           H          0.010688597587    -1.287873381554     0.000000000000     1.007825032070
           H         -0.180324397813     1.095415146746     0.000000000000     1.007825032070

  Basis Set: 6-31G
    Blend: 6-31G
  Basis Set: (6-31G AUX)
    Blend: CC-PVDZ-JKFIT
  Basis Set: (6-31G AUX)
    Blend: CC-PVDZ-JKFIT
	 Reference Energy          =     -75.8427108419039655 [Eh]
	 Singles Energy            =      -0.0000000000000000 [Eh]
	 Same-Spin Energy          =      -0.0336023983687509 [Eh]
	 Opposite-Spin Energy      =      -0.1057613485774951 [Eh]
	 Correlation Energy        =      -0.1393637469462460 [Eh]
	 Total Energy              =     -75.9820745888502103 [Eh]

	 ================> DF-SCS-MP2 Energies <==================
	-----------------------------------------------------------
	 SCS Same-Spin Scale       =       0.3333333333333333 [-]
	 SCS Opposite-Spin Scale   =       1.2000000000000000 [-]
	 SCS Same-Spin Energy      =      -0.0112007994562503 [Eh]
	 SCS Opposite-Spin Energy  =      -0.1269136182929941 [Eh]
	 SCS Correlation Energy    =      -0.1381144177492444 [Eh]
	 SCS Total Energy          =     -75.9808252596532157 [Eh]
	-----------------------------------------------------------

  -Total Gradient:
     Atom            X                  Y                   Z
    ------   -----------------  -----------------  -----------------
       1       -0.027262410722     0.037378858873    -0.000000000000
       2        0.020454626653    -0.137980499600    -0.000000000000
       3        0.006807784069     0.100601640727     0.000000000000

*** Psi4 exiting successfully. Buy a developer a beer!
