                               Psi4 1.2a1.dev429

  ==> Input File <==

--------------------------------------------------------------------------
# density-fitted hartree fock energies and gradients with 6-31g
molecule h20 {
0 1
O 0.0000000000 0.0000000000 0.0000000000
H 0.0000000000 0.0000000000 0.9000000000
H 0.0000000000 0.6893654271 -0.1215537244
}

set basis 6-31g

gradient('hf')
--------------------------------------------------------------------------

    Molecular point group: cs
  Charge       = 0
  Multiplicity = 1
  Basis Set: 6-31G
    Blend: 6-31G
  Basis Set: (6-31G AUX)
    Blend: CC-PVDZ-JKFIT

    Orbital Energies (a.u.)
    -----------------------

    Doubly Occupied:

       1Ap   -20.533526     2Ap    -1.481729     3Ap    -0.795310
       4Ap    -0.591268     1App   -0.516605

  @DF-RHF Final Energy:   -75.84738204981913

   => Energetics <=

    Nuclear Repulsion Energy =             11.1809263255143811
    One-Electron Energy =                -126.2197408224320299
    Two-Electron Energy =                  39.1914324470985278
    Total Energy =                        -75.8473820498191174
    Molecular point group: cs

    Geometry (in Angstrom), charge = 0, multiplicity = 1:

       Center              X                  Y                   Z               Mass
    ------------   -----------------  -----------------  -----------------  -----------------
           O          0.038575122206     0.043559858142     0.000000000000    15.994914619560
           H          0.038575122206    -0.856440141858     0.000000000000     1.007825032070
           H         -0.650790304894     0.165113582542     0.000000000000     1.007825032070

  Basis Set: 6-31G
    Blend: 6-31G
  Basis Set: (6-31G AUX)
    Blend: CC-PVDZ-JKFIT

  -Total Gradient:
     Atom            X                  Y                   Z
    ------   -----------------  -----------------  -----------------
       1       -0.683616553995     0.103334820695     0.000000000000
       2       -0.037407020644     0.072637769246     0.000000000000
       3        0.721023574638    -0.175972589942     0.000000000000

*** Psi4 exiting successfully. Buy a developer a beer!
