                               Psi4 1.2a1.dev429

  ==> Input File <==

--------------------------------------------------------------------------
# density-fitted hartree fock energies and gradients with 6-31g
molecule h20 {
0 1
O 0.0000000000 0.0000000000 0.0000000000
H 0.0000000000 0.0000000000 1.2000000000
H 0.0000000000 1.0000000000 0.0000000000
}

set basis 6-31g

gradient('hf')
--------------------------------------------------------------------------

    Molecular point group: cs
  Charge       = 0
  Multiplicity = 1
  Basis Set: 6-31G
    Blend: 6-31G
  Basis Set: (6-31G AUX)
    Blend: CC-PVDZ-JKFIT

    Orbital Energies (a.u.)
    -----------------------

    Doubly Occupied:

       1Ap   -20.598257     2Ap    -1.314235     3Ap    -0.627920
       4Ap    -0.557649     1App   -0.505268

  @DF-RHF Final Energy:   -75.93875263745444

   => Energetics <=

    Nuclear Repulsion Energy =              8.1000367195839811
    One-Electron Energy =                -120.8709208112617830
    Two-Electron Energy =                  36.8321314542233509
    Total Energy =                        -75.9387526374544564
    Molecular point group: cs

    Geometry (in Angstrom), charge = 0, multiplicity = 1:

       Center              X                  Y                   Z               Mass
    ------------   -----------------  -----------------  -----------------  -----------------
           O          0.055957436636     0.067148923963     0.000000000000    15.994914619560
           H          0.055957436636    -1.132851076037     0.000000000000     1.007825032070
           H         -0.944042563364     0.067148923963     0.000000000000     1.007825032070

  Basis Set: 6-31G
    Blend: 6-31G
  Basis Set: (6-31G AUX)
    Blend: CC-PVDZ-JKFIT

  -Total Gradient:
     Atom            X                  Y                   Z
    ------   -----------------  -----------------  -----------------
       1        0.054813452029     0.138782094269     0.000000000000
       2       -0.021835763407    -0.112579180401     0.000000000000
       3       -0.032977688623    -0.026202913869     0.000000000000

*** Psi4 exiting successfully. Buy a developer a beer!
