                               Psi4 1.2a1.dev429

  ==> Input File <==

--------------------------------------------------------------------------
# density-fitted hartree fock energies and gradients with 6-31g
molecule h20 {
0 1
O 0.0000000000 0.0000000000 0.0000000000
H 0.0000000000 0.0000000000 1.3000000000
H 0.0000000000 1.1276311449 -0.4104241720
}

set basis 6-31g

gradient('hf')
--------------------------------------------------------------------------

    Molecular point group: cs
  Charge       = 0
  Multiplicity = 1
  Basis Set: 6-31G
    Blend: 6-31G
  Basis Set: (6-31G AUX)
    Blend: CC-PVDZ-JKFIT

    Orbital Energies (a.u.)
    -----------------------

    Doubly Occupied:

       1Ap   -20.608244     2Ap    -1.248122     3Ap    -0.584438
       4Ap    -0.506286     1App   -0.492221

  @DF-RHF Final Energy:   -75.88497950631434

   => Energetics <=

    Nuclear Repulsion Energy =              7.0426243286074177
    One-Electron Energy =                -118.9765868139947145
    Two-Electron Energy =                  36.0489829790729672
    Total Energy =                        -75.8849795063143233
    Molecular point group: cs

    Geometry (in Angstrom), charge = 0, multiplicity = 1:

       Center              X                  Y                   Z               Mass
    ------------   -----------------  -----------------  -----------------  -----------------
           O          0.063099348340     0.049778383028     0.000000000000    15.994914619560
           H          0.063099348340    -1.250221616972     0.000000000000     1.007825032070
           H         -1.064531796560     0.460202555028     0.000000000000     1.007825032070

  Basis Set: 6-31G
    Blend: 6-31G
  Basis Set: (6-31G AUX)
    Blend: CC-PVDZ-JKFIT

  -Total Gradient:
     Atom            X                  Y                   Z
    ------   -----------------  -----------------  -----------------
       1        0.100076744632     0.079454950924     0.000000000000
       2        0.010324026087    -0.131539693963     0.000000000000
       3       -0.110400770719     0.052084743040     0.000000000000

*** Psi4 exiting successfully. Buy a developer a beer!
