                               Psi4 1.2a1.dev429

  ==> Input File <==

--------------------------------------------------------------------------
# density-fitted hartree fock energies and gradients with 6-31g
molecule h2o {
0 1
O 0.0000000000 0.0000000000 0.0000000000
H 0.0000000000 0.0000000000 1.3000000000
H 0.0000000000 1.1258330249 -0.6500000000
}

set basis 6-31g

gradient('mp2')
--------------------------------------------------------------------------

    Molecular point group: c2v
  Charge       = 0
  Multiplicity = 1
  Basis Set: 6-31G
    Blend: 6-31G
  Basis Set: (6-31G AUX)
    Blend: CC-PVDZ-JKFIT

    Orbital Energies (a.u.)
    -----------------------

    Doubly Occupied:

       1A1   -20.605127     2A1    -1.228778     1B2    -0.570323
       3A1    -0.485151     1B1    -0.484913

  @DF-RHF Final Energy:   -75.85425972540294

   => Energetics <=

    Nuclear Repulsion Energy =              6.7479661087119602
    One-Electron Energy =                -118.4558682861163277
    Two-Electron Energy =                  35.8536424520014236
    Total Energy =                        -75.8542597254029403
  Basis Set: (6-31G AUX)
    Blend: CC-PVDZ-RI
    Molecular point group: c2v

    Geometry (in Angstrom), charge = 0, multiplicity = 1:

       Center              X                  Y                   Z               Mass
    ------------   -----------------  -----------------  -----------------  -----------------
           O         -0.000000000000     0.000000000000    -0.072744667626    15.994914619560
           H          0.000000000000    -1.125833024915     0.577255332365     1.007825032070
           H         -0.000000000000     1.125833024915     0.577255332365     1.007825032070

  Basis Set: 6-31G
    Blend: 6-31G
  Basis Set: (6-31G AUX)
    Blend: CC-PVDZ-JKFIT
  Basis Set: (6-31G AUX)
    Blend: CC-PVDZ-JKFIT
	 Reference Energy          =     -75.8542597254029403 [Eh]
	 Singles Energy            =      -0.0000000000000000 [Eh]
	 Same-Spin Energy          =      -0.0362041615631897 [Eh]
	 Opposite-Spin Energy      =      -0.1231630252487033 [Eh]
	 Correlation Energy        =      -0.1593671868118929 [Eh]
	 Total Energy              =     -76.0136269122148320 [Eh]

	 ================> DF-SCS-MP2 Energies <==================
	-----------------------------------------------------------
	 SCS Same-Spin Scale       =       0.3333333333333333 [-]
	 SCS Opposite-Spin Scale   =       1.2000000000000000 [-]
	 SCS Same-Spin Energy      =      -0.0120680538543966 [Eh]
	 SCS Opposite-Spin Energy  =      -0.1477956302984439 [Eh]
	 SCS Correlation Energy    =      -0.1598636841528405 [Eh]
	 SCS Total Energy          =     -76.0141234095557792 [Eh]
	-----------------------------------------------------------

  -Total Gradient:
     Atom            X                  Y                   Z
    ------   -----------------  -----------------  -----------------
       1       -0.000000000000    -0.000000000001    -0.062817277516
       2        0.000000000000    -0.102265506331     0.031408638758
       3       -0.000000000000     0.102265506332     0.031408638758

*** Psi4 exiting successfully. Buy a developer a beer!
