                               Psi4 1.3.1 release

  ==> Input File <==

--------------------------------------------------------------------------
# density fitted MP2
molecule h2o {
0 1
H 0.0000000000 0.0000000000 1.2000000000
H 0.0000000000 0.8210369523 -0.2199961883
O 0.0000000000 0.0000000000 0.0000000000
}

set basis 6-31g
energy('mp2')

--------------------------------------------------------------------------

    Molecular point group: cs

    Geometry (in Angstrom), charge = 0, multiplicity = 1:

       Center              X                  Y                   Z               Mass
    ------------   -----------------  -----------------  -----------------  -----------------
         H            0.045943123241    -1.145161498796     0.000000000000     1.007825032230
         H           -0.775093829059     0.274834689504     0.000000000000     1.007825032230
         O            0.045943123241     0.054838501204     0.000000000000    15.994914619570

  Charge       = 0
  Multiplicity = 1
  Basis Set: 6-31G
    Blend: 6-31G
  Basis Set: (6-31G AUX)
    Blend: CC-PVDZ-JKFIT

    Orbital Energies [Eh]
    ---------------------

    Doubly Occupied:

       1Ap   -20.570043     2Ap    -1.350673     3Ap    -0.684813
       4Ap    -0.540644     1App   -0.500325

  @DF-RHF Final Energy:   -75.93203111815414

   => Energetics <=

    Nuclear Repulsion Energy =              8.8309550727877308
    One-Electron Energy =                -122.2329771133910867
    Two-Electron Energy =                  37.4699909224492131
    Total Energy =                        -75.9320311181541427

  Dipole Moment: [D]
     X:    -2.0079      Y:    -1.6925      Z:     0.0000     Total:     2.6261

  Basis Set: (6-31G AUX)
    Blend: CC-PVDZ-RI
	 Reference Energy          =     -75.9320311181541427 [Eh]
	 Singles Energy            =      -0.0000000000000000 [Eh]
	 Same-Spin Energy          =      -0.0309413316579556 [Eh]
	 Opposite-Spin Energy      =      -0.1029363780228328 [Eh]
	 Correlation Energy        =      -0.1338777096807883 [Eh]
	 Total Energy              =     -76.0659088278349316 [Eh]

	 ================> DF-SCS-MP2 Energies <==================
	-----------------------------------------------------------
	 SCS Same-Spin Scale       =       0.3333333333333333 [-]
	 SCS Opposite-Spin Scale   =       1.2000000000000000 [-]
	 SCS Same-Spin Energy      =      -0.0103137772193185 [Eh]
	 SCS Opposite-Spin Energy  =      -0.1235236536273993 [Eh]
	 SCS Correlation Energy    =      -0.1338374308467178 [Eh]
	 SCS Total Energy          =     -76.0658685490008537 [Eh]
	-----------------------------------------------------------

*** Psi4 exiting successfully. Buy a developer a beer!
