                               Psi4 1.2a1.dev429

  ==> Input File <==

--------------------------------------------------------------------------
# density-fitted hartree fock energies and gradients with 6-31g
molecule h20 {
0 1
O 0.0000000000 0.0000000000 0.0000000000
H 0.0000000000 0.0000000000 0.9000000000
H 0.0000000000 0.2431074487 -1.3787308542
}

set basis 6-31g

gradient('hf')
--------------------------------------------------------------------------

    Molecular point group: cs
  Charge       = 0
  Multiplicity = 1
  Basis Set: 6-31G
    Blend: 6-31G
  Basis Set: (6-31G AUX)
    Blend: CC-PVDZ-JKFIT

    Orbital Energies (a.u.)
    -----------------------

    Doubly Occupied:

       1Ap   -20.495886     2Ap    -1.240090     3Ap    -0.638304
       1App   -0.433012     4Ap    -0.431227

  @DF-RHF Final Energy:   -75.82965178398209

   => Energetics <=

    Nuclear Repulsion Energy =              7.9585813164325705
    One-Electron Energy =                -121.0994291663213005
    Two-Electron Energy =                  37.3111960659066426
    Total Energy =                        -75.8296517839820865
    Molecular point group: cs

    Geometry (in Angstrom), charge = 0, multiplicity = 1:

       Center              X                  Y                   Z               Mass
    ------------   -----------------  -----------------  -----------------  -----------------
           O          0.013603669656    -0.026788551440     0.000000000000    15.994914619560
           H          0.013603669656    -0.926788551440     0.000000000000     1.007825032070
           H         -0.229503779044     1.351942302760     0.000000000000     1.007825032070

  Basis Set: 6-31G
    Blend: 6-31G
  Basis Set: (6-31G AUX)
    Blend: CC-PVDZ-JKFIT

  -Total Gradient:
     Atom            X                  Y                   Z
    ------   -----------------  -----------------  -----------------
       1       -0.008897519334    -0.222976029478     0.000000000000
       2        0.022529848071     0.062256246655     0.000000000000
       3       -0.013632328737     0.160719782823     0.000000000000

*** Psi4 exiting successfully. Buy a developer a beer!
