                               Psi4 1.2a1.dev429

  ==> Input File <==

--------------------------------------------------------------------------
# density-fitted hartree fock energies and gradients with 6-31g
molecule o2 {
0 3
O 0.0000000000 0.0000000000 0.0000000000
O 0.0000000000 0.0000000000 0.8424242424
}

set basis 6-31g
set reference rohf

gradient('scf')
--------------------------------------------------------------------------

    Molecular point group: d2h
  Charge       = 0
  Multiplicity = 3
  Basis Set: 6-31G
    Blend: 6-31G
  Basis Set: (6-31G AUX)
    Blend: CC-PVDZ-JKFIT

    Orbital Energies (a.u.)
    -----------------------

    Doubly Occupied:

       1Ag   -20.714414     1B1u  -20.704771     2Ag    -2.171397
       1B2u   -0.961274     1B3u   -0.961274     2B1u   -0.957004
       3Ag    -0.828592

    Singly Occupied:

       1B3g   -0.005826     1B2g   -0.005826

  @DF-ROHF Final Energy:  -148.97887332074606

   => Energetics <=

    Nuclear Repulsion Energy =             40.2022397328863974
    One-Electron Energy =                -283.0963976586941158
    Two-Electron Energy =                  93.9152846050616574
    Total Energy =                       -148.9788733207460609
    Molecular point group: d2h

    Geometry (in Angstrom), charge = 0, multiplicity = 3:

       Center              X                  Y                   Z               Mass
    ------------   -----------------  -----------------  -----------------  -----------------
           O          0.000000000000     0.000000000000    -0.421212121200    15.994914619560
           O          0.000000000000     0.000000000000     0.421212121200    15.994914619560

  Basis Set: 6-31G
    Blend: 6-31G
  Basis Set: (6-31G AUX)
    Blend: CC-PVDZ-JKFIT

  -Total Gradient:
     Atom            X                  Y                   Z
    ------   -----------------  -----------------  -----------------
       1        0.000000000000     0.000000000000     2.577628828691
       2        0.000000000000    -0.000000000000    -2.577628828691

*** Psi4 exiting successfully. Buy a developer a beer!
