                               Psi4 1.2a1.dev429

  ==> Input File <==

--------------------------------------------------------------------------
# density-fitted hartree fock energies and gradients with 6-31g
molecule h2o {
0 1
O 0.0000000000 0.0000000000 0.0000000000
H 0.0000000000 0.0000000000 1.4000000000
H 0.0000000000 0.9192533317 -0.7713451316
}

set basis 6-31g

gradient('mp2')
--------------------------------------------------------------------------

    Molecular point group: cs
  Charge       = 0
  Multiplicity = 1
  Basis Set: 6-31G
    Blend: 6-31G
  Basis Set: (6-31G AUX)
    Blend: CC-PVDZ-JKFIT

    Orbital Energies (a.u.)
    -----------------------

    Doubly Occupied:

       1Ap   -20.590337     2Ap    -1.222597     3Ap    -0.577631
       1App   -0.475713     4Ap    -0.466691

  @DF-RHF Final Energy:   -75.84301559931234

   => Energetics <=

    Nuclear Repulsion Energy =              6.7761436611072101
    One-Electron Energy =                -118.5723818083818486
    Two-Electron Energy =                  35.9532225479623051
    Total Energy =                        -75.8430155993123378
  Basis Set: (6-31G AUX)
    Blend: CC-PVDZ-RI
    Molecular point group: cs

    Geometry (in Angstrom), charge = 0, multiplicity = 1:

       Center              X                  Y                   Z               Mass
    ------------   -----------------  -----------------  -----------------  -----------------
           O          0.051439060061     0.035177914965     0.000000000000    15.994914619560
           H          0.051439060061    -1.364822085035     0.000000000000     1.007825032070
           H         -0.867814271639     0.806523046565     0.000000000000     1.007825032070

  Basis Set: 6-31G
    Blend: 6-31G
  Basis Set: (6-31G AUX)
    Blend: CC-PVDZ-JKFIT
  Basis Set: (6-31G AUX)
    Blend: CC-PVDZ-JKFIT
	 Reference Energy          =     -75.8430155993123378 [Eh]
	 Singles Energy            =      -0.0000000000000000 [Eh]
	 Same-Spin Energy          =      -0.0358894197285468 [Eh]
	 Opposite-Spin Energy      =      -0.1218896816708796 [Eh]
	 Correlation Energy        =      -0.1577791013994264 [Eh]
	 Total Energy              =     -76.0007947007117650 [Eh]

	 ================> DF-SCS-MP2 Energies <==================
	-----------------------------------------------------------
	 SCS Same-Spin Scale       =       0.3333333333333333 [-]
	 SCS Opposite-Spin Scale   =       1.2000000000000000 [-]
	 SCS Same-Spin Energy      =      -0.0119631399095156 [Eh]
	 SCS Opposite-Spin Energy  =      -0.1462676180050555 [Eh]
	 SCS Correlation Energy    =      -0.1582307579145711 [Eh]
	 SCS Total Energy          =     -76.0012463572269041 [Eh]
	-----------------------------------------------------------

  -Total Gradient:
     Atom            X                  Y                   Z
    ------   -----------------  -----------------  -----------------
       1        0.022693119157     0.018937961906     0.000000000000
       2        0.028953204139    -0.106369384415     0.000000000000
       3       -0.051646323296     0.087431422509    -0.000000000000

*** Psi4 exiting successfully. Buy a developer a beer!
