                               Psi4 1.2.1 release

  ==> Input File <==

--------------------------------------------------------------------------
# density fitted hartree fock
molecule h2o {
0 1
H 0.0000000000 0.0000000000 0.9375000000
H 0.0000000000 0.8210369523 -0.2199961883
O 0.0000000000 0.0000000000 0.0000000000
}

set basis 6-31g
energy('hf')

--------------------------------------------------------------------------

    Molecular point group: cs

    Geometry (in Angstrom), charge = 0, multiplicity = 1:

       Center              X                  Y                   Z               Mass
    ------------   -----------------  -----------------  -----------------  -----------------
         H            0.045943123234    -0.897350325921     0.000000000000     1.007825032070
         H           -0.775093829066     0.260145862379     0.000000000000     1.007825032070
         O            0.045943123234     0.040149674079     0.000000000000    15.994914619560

  Charge       = 0
  Multiplicity = 1
  Basis Set: 6-31G
    Blend: 6-31G
  Basis Set: (6-31G AUX)
    Blend: CC-PVDZ-JKFIT

    Orbital Energies [Eh]
    ---------------------

    Doubly Occupied:

       1Ap   -20.547317     2Ap    -1.395299     3Ap    -0.748663
       4Ap    -0.568702     1App   -0.505491

  @DF-RHF Final Energy:   -75.96962234651181

   => Energetics <=

    Nuclear Repulsion Energy =              9.8690282108718801
    One-Electron Energy =                -124.1463575517996389
    Two-Electron Energy =                  38.3077069944159518
    Total Energy =                        -75.9696223465118123

  Dipole Moment: [D]
     X:    -2.0252      Y:    -1.6180      Z:     0.0000     Total:     2.5922

*** Psi4 exiting successfully. Buy a developer a beer!
