                               Psi4 1.2a1.dev429

  ==> Input File <==

--------------------------------------------------------------------------
# density-fitted hartree fock energies and gradients with 6-31g
molecule h20 {
0 1
O 0.0000000000 0.0000000000 0.0000000000
H 0.0000000000 0.0000000000 1.4000000000
H 0.0000000000 0.4788282007 -1.3155696691
}

set basis 6-31g

gradient('hf')
--------------------------------------------------------------------------

    Molecular point group: c2v
  Charge       = 0
  Multiplicity = 1
  Basis Set: 6-31G
    Blend: 6-31G
  Basis Set: (6-31G AUX)
    Blend: CC-PVDZ-JKFIT

    Orbital Energies (a.u.)
    -----------------------

    Doubly Occupied:

       1A1   -20.545803     2A1    -1.163514     1B2    -0.527042
       1B1    -0.435393     3A1    -0.420499

  @DF-RHF Final Energy:   -75.75268046747378

   => Energetics <=

    Nuclear Repulsion Energy =              6.2396468909980936
    One-Electron Energy =                -117.8001521046409437
    Two-Electron Energy =                  35.8078247461690751
    Total Energy =                        -75.7526804674737804
    Molecular point group: c2v

    Geometry (in Angstrom), charge = 0, multiplicity = 1:

       Center              X                  Y                   Z               Mass
    ------------   -----------------  -----------------  -----------------  -----------------
           O         -0.000000000000     0.000000000000    -0.027207339319    15.994914619560
           H          0.000000000000    -1.378730854221     0.215900109436     1.007825032070
           H         -0.000000000000     1.378730854221     0.215900109436     1.007825032070

  Basis Set: 6-31G
    Blend: 6-31G
  Basis Set: (6-31G AUX)
    Blend: CC-PVDZ-JKFIT

  -Total Gradient:
     Atom            X                  Y                   Z
    ------   -----------------  -----------------  -----------------
       1       -0.000000000000     0.000000000000     0.013332378959
       2        0.000000000000    -0.133197507262    -0.006666189480
       3       -0.000000000000     0.133197507262    -0.006666189480

*** Psi4 exiting successfully. Buy a developer a beer!
