                               Psi4 1.2a1.dev429

  ==> Input File <==

--------------------------------------------------------------------------
# density-fitted hartree fock energies and gradients with 6-31g
molecule h20 {
0 1
O 0.0000000000 0.0000000000 0.0000000000
H 0.0000000000 0.0000000000 1.4000000000
H 0.0000000000 0.0000000000 -0.7000000000
}

set basis 6-31g

gradient('hf')
--------------------------------------------------------------------------

    Molecular point group: c2v
  Charge       = 0
  Multiplicity = 1
  Basis Set: 6-31G
    Blend: 6-31G
  Basis Set: (6-31G AUX)
    Blend: CC-PVDZ-JKFIT

    Orbital Energies (a.u.)
    -----------------------

    Doubly Occupied:

       1A1   -20.475754     2A1    -1.330372     3A1    -0.687966
       1B2    -0.441474     1B1    -0.441474

  @DF-RHF Final Energy:   -75.70407232384086

   => Energetics <=

    Nuclear Repulsion Energy =              9.3235984370619036
    One-Electron Energy =                -123.3012621543390566
    Two-Electron Energy =                  38.2735913934362983
    Total Energy =                        -75.7040723238408475
    Molecular point group: c2v

    Geometry (in Angstrom), charge = 0, multiplicity = 1:

       Center              X                  Y                   Z               Mass
    ------------   -----------------  -----------------  -----------------  -----------------
           O          0.000000000000     0.000000000000    -0.039170205645    15.994914619560
           H          0.000000000000     0.000000000000     1.360829794355     1.007825032070
           H          0.000000000000     0.000000000000    -0.739170205645     1.007825032070

  Basis Set: 6-31G
    Blend: 6-31G
  Basis Set: (6-31G AUX)
    Blend: CC-PVDZ-JKFIT

  -Total Gradient:
     Atom            X                  Y                   Z
    ------   -----------------  -----------------  -----------------
       1       -0.000000000000     0.000000000000    -0.902690729676
       2        0.000000000000     0.000000000000     0.171963097471
       3        0.000000000000     0.000000000000     0.730727632205

*** Psi4 exiting successfully. Buy a developer a beer!
