                               Psi4 1.2a1.dev429

  ==> Input File <==

--------------------------------------------------------------------------
# density-fitted hartree fock energies and gradients with 6-31g
molecule h2o {
0 1
O 0.0000000000 0.0000000000 0.0000000000
H 0.0000000000 0.0000000000 1.4000000000
H 0.0000000000 1.0724622204 -0.8999026536
}

set basis 6-31g

gradient('mp2')
--------------------------------------------------------------------------

    Molecular point group: c2v
  Charge       = 0
  Multiplicity = 1
  Basis Set: 6-31G
    Blend: 6-31G
  Basis Set: (6-31G AUX)
    Blend: CC-PVDZ-JKFIT

    Orbital Energies (a.u.)
    -----------------------

    Doubly Occupied:

       1A1   -20.606271     2A1    -1.205535     1B2    -0.539411
       1B1    -0.478020     3A1    -0.459137

  @DF-RHF Final Energy:   -75.79447874313871

   => Energetics <=

    Nuclear Repulsion Energy =              6.2562689720497060
    One-Electron Energy =                -117.5247463282143769
    Two-Electron Energy =                  35.4739986130259553
    Total Energy =                        -75.7944787431387113
  Basis Set: (6-31G AUX)
    Blend: CC-PVDZ-RI
    Molecular point group: c2v

    Geometry (in Angstrom), charge = 0, multiplicity = 1:

       Center              X                  Y                   Z               Mass
    ------------   -----------------  -----------------  -----------------  -----------------
           O         -0.000000000000     0.000000000000    -0.066216176888    15.994914619560
           H          0.000000000000    -1.268830901876     0.525449389556     1.007825032070
           H         -0.000000000000     1.268830901876     0.525449389556     1.007825032070

  Basis Set: 6-31G
    Blend: 6-31G
  Basis Set: (6-31G AUX)
    Blend: CC-PVDZ-JKFIT
  Basis Set: (6-31G AUX)
    Blend: CC-PVDZ-JKFIT
	 Reference Energy          =     -75.7944787431387113 [Eh]
	 Singles Energy            =      -0.0000000000000000 [Eh]
	 Same-Spin Energy          =      -0.0375688858275352 [Eh]
	 Opposite-Spin Energy      =      -0.1305908908773514 [Eh]
	 Correlation Energy        =      -0.1681597767048866 [Eh]
	 Total Energy              =     -75.9626385198435941 [Eh]

	 ================> DF-SCS-MP2 Energies <==================
	-----------------------------------------------------------
	 SCS Same-Spin Scale       =       0.3333333333333333 [-]
	 SCS Opposite-Spin Scale   =       1.2000000000000000 [-]
	 SCS Same-Spin Energy      =      -0.0125229619425117 [Eh]
	 SCS Opposite-Spin Energy  =      -0.1567090690528217 [Eh]
	 SCS Correlation Energy    =      -0.1692320309953334 [Eh]
	 SCS Total Energy          =     -75.9637107741340429 [Eh]
	-----------------------------------------------------------

  -Total Gradient:
     Atom            X                  Y                   Z
    ------   -----------------  -----------------  -----------------
       1        0.000000000000    -0.000000000000    -0.030887308967
       2       -0.000000000000    -0.103498760367     0.015443654483
       3       -0.000000000000     0.103498760367     0.015443654484

*** Psi4 exiting successfully. Buy a developer a beer!
