                               Psi4 1.2a1.dev429

  ==> Input File <==

--------------------------------------------------------------------------
# density-fitted hartree fock energies and gradients with 6-31g
molecule h2o {
0 1
O 0.0000000000 0.0000000000 0.0000000000
H 0.0000000000 0.0000000000 0.9000000000
H 0.0000000000 0.7070663707 -0.8426488874
}

set basis 6-31g

gradient('mp2')
--------------------------------------------------------------------------

    Molecular point group: cs
  Charge       = 0
  Multiplicity = 1
  Basis Set: 6-31G
    Blend: 6-31G
  Basis Set: (6-31G AUX)
    Blend: CC-PVDZ-JKFIT

    Orbital Energies (a.u.)
    -----------------------

    Doubly Occupied:

       1Ap   -20.532781     2Ap    -1.306545     3Ap    -0.725336
       4Ap    -0.490242     1App   -0.476976

  @DF-RHF Final Energy:   -75.94516660394910

   => Energetics <=

    Nuclear Repulsion Energy =              8.8337419197981415
    One-Electron Energy =                -122.4940578593127469
    Two-Electron Energy =                  37.7151493355654921
    Total Energy =                        -75.9451666039491045
  Basis Set: (6-31G AUX)
    Blend: CC-PVDZ-RI
    Molecular point group: cs

    Geometry (in Angstrom), charge = 0, multiplicity = 1:

       Center              X                  Y                   Z               Mass
    ------------   -----------------  -----------------  -----------------  -----------------
           O          0.039565621636     0.003209221249     0.000000000000    15.994914619560
           H          0.039565621636    -0.896790778751     0.000000000000     1.007825032070
           H         -0.667500749064     0.845858108649     0.000000000000     1.007825032070

  Basis Set: 6-31G
    Blend: 6-31G
  Basis Set: (6-31G AUX)
    Blend: CC-PVDZ-JKFIT
  Basis Set: (6-31G AUX)
    Blend: CC-PVDZ-JKFIT
	 Reference Energy          =     -75.9451666039491045 [Eh]
	 Singles Energy            =      -0.0000000000000000 [Eh]
	 Same-Spin Energy          =      -0.0311292882315804 [Eh]
	 Opposite-Spin Energy      =      -0.0992129869700198 [Eh]
	 Correlation Energy        =      -0.1303422752016001 [Eh]
	 Total Energy              =     -76.0755088791507035 [Eh]

	 ================> DF-SCS-MP2 Energies <==================
	-----------------------------------------------------------
	 SCS Same-Spin Scale       =       0.3333333333333333 [-]
	 SCS Opposite-Spin Scale   =       1.2000000000000000 [-]
	 SCS Same-Spin Energy      =      -0.0103764294105268 [Eh]
	 SCS Opposite-Spin Energy  =      -0.1190555843640237 [Eh]
	 SCS Correlation Energy    =      -0.1294320137745505 [Eh]
	 SCS Total Energy          =     -76.0745986177236517 [Eh]
	-----------------------------------------------------------

  -Total Gradient:
     Atom            X                  Y                   Z
    ------   -----------------  -----------------  -----------------
       1        0.004009771717    -0.174938249314    -0.000000000000
       2        0.037217562194     0.078432496126     0.000000000000
       3       -0.041227333911     0.096505753188     0.000000000000

*** Psi4 exiting successfully. Buy a developer a beer!
