                               Psi4 1.2a1.dev429

  ==> Input File <==

--------------------------------------------------------------------------
# density-fitted hartree fock energies and gradients with 6-31g
molecule h2o {
0 1
O 0.0000000000 0.0000000000 0.0000000000
H 0.0000000000 0.0000000000 0.8000000000
H 0.0000000000 0.6928203230 -0.4000000000
}

set basis 6-31g

gradient('mp2')
--------------------------------------------------------------------------

    Molecular point group: c2v
  Charge       = 0
  Multiplicity = 1
  Basis Set: 6-31G
    Blend: 6-31G
  Basis Set: (6-31G AUX)
    Blend: CC-PVDZ-JKFIT

    Orbital Energies (a.u.)
    -----------------------

    Doubly Occupied:

       1A1   -20.521079     2A1    -1.437152     1B2    -0.844020
       3A1    -0.555388     1B1    -0.509319

  @DF-RHF Final Energy:   -75.91879936168559

   => Energetics <=

    Nuclear Repulsion Energy =             10.9654449267471854
    One-Electron Energy =                -126.0345730011441105
    Two-Electron Energy =                  39.1503287127113424
    Total Energy =                        -75.9187993616855863
  Basis Set: (6-31G AUX)
    Blend: CC-PVDZ-RI
    Molecular point group: c2v

    Geometry (in Angstrom), charge = 0, multiplicity = 1:

       Center              X                  Y                   Z               Mass
    ------------   -----------------  -----------------  -----------------  -----------------
           O         -0.000000000000     0.000000000000    -0.044765949308    15.994914619560
           H          0.000000000000    -0.692820323021     0.355234050680     1.007825032070
           H         -0.000000000000     0.692820323021     0.355234050680     1.007825032070

  Basis Set: 6-31G
    Blend: 6-31G
  Basis Set: (6-31G AUX)
    Blend: CC-PVDZ-JKFIT
  Basis Set: (6-31G AUX)
    Blend: CC-PVDZ-JKFIT
	 Reference Energy          =     -75.9187993616855863 [Eh]
	 Singles Energy            =      -0.0000000000000000 [Eh]
	 Same-Spin Energy          =      -0.0271422421485068 [Eh]
	 Opposite-Spin Energy      =      -0.0873541572965039 [Eh]
	 Correlation Energy        =      -0.1144963994450107 [Eh]
	 Total Energy              =     -76.0332957611306028 [Eh]

	 ================> DF-SCS-MP2 Energies <==================
	-----------------------------------------------------------
	 SCS Same-Spin Scale       =       0.3333333333333333 [-]
	 SCS Opposite-Spin Scale   =       1.2000000000000000 [-]
	 SCS Same-Spin Energy      =      -0.0090474140495023 [Eh]
	 SCS Opposite-Spin Energy  =      -0.1048249887558046 [Eh]
	 SCS Correlation Energy    =      -0.1138724028053069 [Eh]
	 SCS Total Energy          =     -76.0326717644908996 [Eh]
	-----------------------------------------------------------

  -Total Gradient:
     Atom            X                  Y                   Z
    ------   -----------------  -----------------  -----------------
       1        0.000000000000    -0.000000000030     0.306535802159
       2       -0.000000000000     0.264964747120    -0.153267901088
       3       -0.000000000000    -0.264964747090    -0.153267901071

*** Psi4 exiting successfully. Buy a developer a beer!
