                               Psi4 1.2a1.dev429

  ==> Input File <==

--------------------------------------------------------------------------
# density-fitted hartree fock energies and gradients with 6-31g
molecule h20 {
0 1
O 0.0000000000 0.0000000000 0.0000000000
H 0.0000000000 0.0000000000 1.2000000000
H 0.0000000000 0.9192533317 -0.7713451316
}

set basis 6-31g

gradient('hf')
--------------------------------------------------------------------------

    Molecular point group: c2v
  Charge       = 0
  Multiplicity = 1
  Basis Set: 6-31G
    Blend: 6-31G
  Basis Set: (6-31G AUX)
    Blend: CC-PVDZ-JKFIT

    Orbital Energies (a.u.)
    -----------------------

    Doubly Occupied:

       1A1   -20.576283     2A1    -1.238917     1B2    -0.613227
       3A1    -0.481101     1B1    -0.475047

  @DF-RHF Final Energy:   -75.89343143386289

   => Energetics <=

    Nuclear Repulsion Energy =              7.2989804676693391
    One-Electron Energy =                -119.6156757528877961
    Two-Electron Energy =                  36.4232638513555784
    Total Energy =                        -75.8934314338628724
    Molecular point group: c2v

    Geometry (in Angstrom), charge = 0, multiplicity = 1:

       Center              X                  Y                   Z               Mass
    ------------   -----------------  -----------------  -----------------  -----------------
           O         -0.000000000000     0.000000000000    -0.056756723045    15.994914619560
           H          0.000000000000    -1.087569344424     0.450385191030     1.007825032070
           H         -0.000000000000     1.087569344424     0.450385191030     1.007825032070

  Basis Set: 6-31G
    Blend: 6-31G
  Basis Set: (6-31G AUX)
    Blend: CC-PVDZ-JKFIT

  -Total Gradient:
     Atom            X                  Y                   Z
    ------   -----------------  -----------------  -----------------
       1        0.000000000000     0.000000000000    -0.056496149441
       2        0.000000000000    -0.127538185431     0.028248074721
       3       -0.000000000000     0.127538185431     0.028248074721

*** Psi4 exiting successfully. Buy a developer a beer!
