                               Psi4 1.2a1.dev429

  ==> Input File <==

--------------------------------------------------------------------------
# density-fitted hartree fock energies and gradients with 6-31g
molecule h20 {
0 1
O 0.0000000000 0.0000000000 0.0000000000
H 0.0000000000 0.0000000000 1.2000000000
H 0.0000000000 0.6062177826 -0.3500000000
}

set basis 6-31g

gradient('hf')
--------------------------------------------------------------------------

    Molecular point group: cs
  Charge       = 0
  Multiplicity = 1
  Basis Set: 6-31G
    Blend: 6-31G
  Basis Set: (6-31G AUX)
    Blend: CC-PVDZ-JKFIT

    Orbital Energies (a.u.)
    -----------------------

    Doubly Occupied:

       1Ap   -20.541939     2Ap    -1.409989     3Ap    -0.739593
       4Ap    -0.524391     1App   -0.497966

  @DF-RHF Final Energy:   -75.81369300515630

   => Energetics <=

    Nuclear Repulsion Energy =              9.8935393540416214
    One-Electron Energy =                -123.9867071502377343
    Two-Electron Energy =                  38.2794747910398101
    Total Energy =                        -75.8136930051562956
    Molecular point group: cs

    Geometry (in Angstrom), charge = 0, multiplicity = 1:

       Center              X                  Y                   Z               Mass
    ------------   -----------------  -----------------  -----------------  -----------------
           O          0.033922393158     0.047563821141     0.000000000000    15.994914619560
           H          0.033922393158    -1.152436178859     0.000000000000     1.007825032070
           H         -0.572295389442     0.397563821141     0.000000000000     1.007825032070

  Basis Set: 6-31G
    Blend: 6-31G
  Basis Set: (6-31G AUX)
    Blend: CC-PVDZ-JKFIT

  -Total Gradient:
     Atom            X                  Y                   Z
    ------   -----------------  -----------------  -----------------
       1       -0.664102976176     0.489613255835     0.000000000000
       2        0.012661158209    -0.138565737725     0.000000000000
       3        0.651441817967    -0.351047518111     0.000000000000

*** Psi4 exiting successfully. Buy a developer a beer!
