                               Psi4 1.2a1.dev429

  ==> Input File <==

--------------------------------------------------------------------------
# density-fitted hartree fock energies and gradients with 6-31g
molecule h2o {
0 1
O 0.0000000000 0.0000000000 0.0000000000
H 0.0000000000 0.0000000000 0.8000000000
H 0.0000000000 0.1562833599 -0.8863269777
}

set basis 6-31g

gradient('mp2')
--------------------------------------------------------------------------

    Molecular point group: cs
  Charge       = 0
  Multiplicity = 1
  Basis Set: 6-31G
    Blend: 6-31G
  Basis Set: (6-31G AUX)
    Blend: CC-PVDZ-JKFIT

    Orbital Energies (a.u.)
    -----------------------

    Doubly Occupied:

       1Ap   -20.500265     2Ap    -1.360443     3Ap    -0.852533
       4Ap    -0.488377     1App   -0.487196

  @DF-RHF Final Energy:   -75.91906155728073

   => Energetics <=

    Nuclear Repulsion Energy =             10.3080351104758829
    One-Electron Energy =                -125.0765654815890286
    Two-Electron Energy =                  38.8494688138324165
    Total Energy =                        -75.9190615572807275
  Basis Set: (6-31G AUX)
    Blend: CC-PVDZ-RI
    Molecular point group: cs

    Geometry (in Angstrom), charge = 0, multiplicity = 1:

       Center              X                  Y                   Z               Mass
    ------------   -----------------  -----------------  -----------------  -----------------
           O          0.008745216209    -0.004830636385     0.000000000000    15.994914619560
           H          0.008745216209    -0.804830636385     0.000000000000     1.007825032070
           H         -0.147538143691     0.881496341315     0.000000000000     1.007825032070

  Basis Set: 6-31G
    Blend: 6-31G
  Basis Set: (6-31G AUX)
    Blend: CC-PVDZ-JKFIT
  Basis Set: (6-31G AUX)
    Blend: CC-PVDZ-JKFIT
	 Reference Energy          =     -75.9190615572807275 [Eh]
	 Singles Energy            =      -0.0000000000000000 [Eh]
	 Same-Spin Energy          =      -0.0283236595441257 [Eh]
	 Opposite-Spin Energy      =      -0.0894620769714950 [Eh]
	 Correlation Energy        =      -0.1177857365156207 [Eh]
	 Total Energy              =     -76.0368472937963418 [Eh]

	 ================> DF-SCS-MP2 Energies <==================
	-----------------------------------------------------------
	 SCS Same-Spin Scale       =       0.3333333333333333 [-]
	 SCS Opposite-Spin Scale   =       1.2000000000000000 [-]
	 SCS Same-Spin Energy      =      -0.0094412198480419 [Eh]
	 SCS Opposite-Spin Energy  =      -0.1073544923657940 [Eh]
	 SCS Correlation Energy    =      -0.1167957122138359 [Eh]
	 SCS Total Energy          =     -76.0358572694945565 [Eh]
	-----------------------------------------------------------

  -Total Gradient:
     Atom            X                  Y                   Z
    ------   -----------------  -----------------  -----------------
       1       -0.034392942148    -0.236034436432    -0.000000000000
       2        0.013733667668     0.282897645608     0.000000000000
       3        0.020659274480    -0.046863209177     0.000000000000

*** Psi4 exiting successfully. Buy a developer a beer!
