                               Psi4 1.2a1.dev429

  ==> Input File <==

--------------------------------------------------------------------------
# density-fitted hartree fock energies and gradients with 6-31g
molecule h20 {
0 1
O 0.0000000000 0.0000000000 0.0000000000
H 0.0000000000 0.0000000000 1.2000000000
H 0.0000000000 0.6577848346 -0.2394141003
}

set basis 6-31g

gradient('hf')
--------------------------------------------------------------------------

    Molecular point group: cs
  Charge       = 0
  Multiplicity = 1
  Basis Set: 6-31G
    Blend: 6-31G
  Basis Set: (6-31G AUX)
    Blend: CC-PVDZ-JKFIT

    Orbital Energies (a.u.)
    -----------------------

    Doubly Occupied:

       1Ap   -20.551348     2Ap    -1.421507     3Ap    -0.729854
       4Ap    -0.540068     1App   -0.504179

  @DF-RHF Final Energy:   -75.81651741101618

   => Energetics <=

    Nuclear Repulsion Energy =              9.9099615655189055
    One-Electron Energy =                -123.9590454061235931
    Two-Electron Energy =                  38.2325664295885019
    Total Energy =                        -75.8165174110161786
    Molecular point group: cs

    Geometry (in Angstrom), charge = 0, multiplicity = 1:

       Center              X                  Y                   Z               Mass
    ------------   -----------------  -----------------  -----------------  -----------------
           O          0.036807953202     0.053751924616     0.000000000000    15.994914619560
           H          0.036807953202    -1.146248075384     0.000000000000     1.007825032070
           H         -0.620976881398     0.293166024916     0.000000000000     1.007825032070

  Basis Set: 6-31G
    Blend: 6-31G
  Basis Set: (6-31G AUX)
    Blend: CC-PVDZ-JKFIT

  -Total Gradient:
     Atom            X                  Y                   Z
    ------   -----------------  -----------------  -----------------
       1       -0.700142050446     0.383766842037     0.000000000000
       2        0.001137273989    -0.131424642050     0.000000000000
       3        0.699004776457    -0.252342199988     0.000000000000

*** Psi4 exiting successfully. Buy a developer a beer!
