                               Psi4 1.2a1.dev429

  ==> Input File <==

--------------------------------------------------------------------------
# density-fitted hartree fock energies and gradients with 6-31g
molecule h20 {
0 1
O 0.0000000000 0.0000000000 0.0000000000
H 0.0000000000 0.0000000000 1.0000000000
H 0.0000000000 1.0832885283 -0.1910129954
}

set basis 6-31g

gradient('hf')
--------------------------------------------------------------------------

    Molecular point group: cs
  Charge       = 0
  Multiplicity = 1
  Basis Set: 6-31G
    Blend: 6-31G
  Basis Set: (6-31G AUX)
    Blend: CC-PVDZ-JKFIT

    Orbital Energies (a.u.)
    -----------------------

    Doubly Occupied:

       1Ap   -20.582022     2Ap    -1.319096     3Ap    -0.656341
       4Ap    -0.554209     1App   -0.500235

  @DF-RHF Final Energy:   -75.96504216764697

   => Energetics <=

    Nuclear Repulsion Energy =              8.4106653741558457
    One-Electron Energy =                -121.5276084775414915
    Two-Electron Energy =                  37.1519009357386665
    Total Energy =                        -75.9650421676469847
    Molecular point group: cs

    Geometry (in Angstrom), charge = 0, multiplicity = 1:

       Center              X                  Y                   Z               Mass
    ------------   -----------------  -----------------  -----------------  -----------------
           O          0.060618049181     0.045268839049     0.000000000000    15.994914619560
           H          0.060618049181    -0.954731160951     0.000000000000     1.007825032070
           H         -1.022670479119     0.236281834449     0.000000000000     1.007825032070

  Basis Set: 6-31G
    Blend: 6-31G
  Basis Set: (6-31G AUX)
    Blend: CC-PVDZ-JKFIT

  -Total Gradient:
     Atom            X                  Y                   Z
    ------   -----------------  -----------------  -----------------
       1        0.107473239910     0.033263762111     0.000000000000
       2       -0.012233961657    -0.038763663324     0.000000000000
       3       -0.095239278254     0.005499901213     0.000000000000

*** Psi4 exiting successfully. Buy a developer a beer!
