                               Psi4 1.2a1.dev429

  ==> Input File <==

--------------------------------------------------------------------------
# density-fitted hartree fock energies and gradients with 6-31g
molecule h2o {
0 1
O 0.0000000000 0.0000000000 0.0000000000
H 0.0000000000 0.0000000000 1.1000000000
H 0.0000000000 0.3078181290 -0.8457233587
}

set basis 6-31g

gradient('mp2')
--------------------------------------------------------------------------

    Molecular point group: cs
  Charge       = 0
  Multiplicity = 1
  Basis Set: 6-31G
    Blend: 6-31G
  Basis Set: (6-31G AUX)
    Blend: CC-PVDZ-JKFIT

    Orbital Energies (a.u.)
    -----------------------

    Doubly Occupied:

       1Ap   -20.512120     2Ap    -1.286746     3Ap    -0.731813
       4Ap    -0.465958     1App   -0.463281

  @DF-RHF Final Energy:   -75.92532941999664

   => Energetics <=

    Nuclear Repulsion Energy =              8.8209874800538515
    One-Electron Energy =                -122.5727997173182047
    Two-Electron Energy =                  37.8264828172677028
    Total Energy =                        -75.9253294199966433
  Basis Set: (6-31G AUX)
    Blend: CC-PVDZ-RI
    Molecular point group: cs

    Geometry (in Angstrom), charge = 0, multiplicity = 1:

       Center              X                  Y                   Z               Mass
    ------------   -----------------  -----------------  -----------------  -----------------
           O          0.017224713449     0.014228669044     0.000000000000    15.994914619560
           H          0.017224713449    -1.085771330956     0.000000000000     1.007825032070
           H         -0.290593415551     0.859952027744     0.000000000000     1.007825032070

  Basis Set: 6-31G
    Blend: 6-31G
  Basis Set: (6-31G AUX)
    Blend: CC-PVDZ-JKFIT
  Basis Set: (6-31G AUX)
    Blend: CC-PVDZ-JKFIT
	 Reference Energy          =     -75.9253294199966433 [Eh]
	 Singles Energy            =      -0.0000000000000000 [Eh]
	 Same-Spin Energy          =      -0.0310615980514282 [Eh]
	 Opposite-Spin Energy      =      -0.0976505437997825 [Eh]
	 Correlation Energy        =      -0.1287121418512107 [Eh]
	 Total Energy              =     -76.0540415618478534 [Eh]

	 ================> DF-SCS-MP2 Energies <==================
	-----------------------------------------------------------
	 SCS Same-Spin Scale       =       0.3333333333333333 [-]
	 SCS Opposite-Spin Scale   =       1.2000000000000000 [-]
	 SCS Same-Spin Energy      =      -0.0103538660171427 [Eh]
	 SCS Opposite-Spin Energy  =      -0.1171806525597390 [Eh]
	 SCS Correlation Energy    =      -0.1275345185768817 [Eh]
	 SCS Total Energy          =     -76.0528639385735232 [Eh]
	-----------------------------------------------------------

  -Total Gradient:
     Atom            X                  Y                   Z
    ------   -----------------  -----------------  -----------------
       1       -0.076748761626     0.166042136131    -0.000000000000
       2        0.024949055632    -0.112880031374     0.000000000000
       3        0.051799705994    -0.053162104757     0.000000000000

*** Psi4 exiting successfully. Buy a developer a beer!
