                               Psi4 1.2a1.dev429

  ==> Input File <==

--------------------------------------------------------------------------
# density-fitted hartree fock energies and gradients with 6-31g
molecule h20 {
0 1
O 0.0000000000 0.0000000000 0.0000000000
H 0.0000000000 0.0000000000 1.2000000000
H 0.0000000000 0.5500000000 -0.9526279442
}

set basis 6-31g

gradient('hf')
--------------------------------------------------------------------------

    Molecular point group: cs
  Charge       = 0
  Multiplicity = 1
  Basis Set: 6-31G
    Blend: 6-31G
  Basis Set: (6-31G AUX)
    Blend: CC-PVDZ-JKFIT

    Orbital Energies (a.u.)
    -----------------------

    Doubly Occupied:

       1Ap   -20.538010     2Ap    -1.229983     3Ap    -0.640367
       4Ap    -0.455551     1App   -0.455154

  @DF-RHF Final Energy:   -75.89114825913393

   => Energetics <=

    Nuclear Repulsion Energy =              7.6145866984557058
    One-Electron Energy =                -120.3733407464669796
    Two-Electron Energy =                  36.8676057888773414
    Total Energy =                        -75.8911482591339279
    Molecular point group: cs

    Geometry (in Angstrom), charge = 0, multiplicity = 1:

       Center              X                  Y                   Z               Mass
    ------------   -----------------  -----------------  -----------------  -----------------
           O          0.030776590150     0.013842306138     0.000000000000    15.994914619560
           H          0.030776590150    -1.186157693862     0.000000000000     1.007825032070
           H         -0.519223409850     0.966470250338     0.000000000000     1.007825032070

  Basis Set: 6-31G
    Blend: 6-31G
  Basis Set: (6-31G AUX)
    Blend: CC-PVDZ-JKFIT

  -Total Gradient:
     Atom            X                  Y                   Z
    ------   -----------------  -----------------  -----------------
       1       -0.006666317724     0.025202841266     0.000000000000
       2        0.031705738527    -0.137748548335     0.000000000000
       3       -0.025039420804     0.112545707069     0.000000000000

*** Psi4 exiting successfully. Buy a developer a beer!
