                               Psi4 1.2a1.dev429

  ==> Input File <==

--------------------------------------------------------------------------
# density-fitted hartree fock energies and gradients with 6-31g
molecule h2o {
0 1
O 0.0000000000 0.0000000000 0.0000000000
H 0.0000000000 0.0000000000 1.0000000000
H 0.0000000000 0.9526279442 -0.5500000000
}

set basis 6-31g

gradient('mp2')
--------------------------------------------------------------------------

    Molecular point group: cs
  Charge       = 0
  Multiplicity = 1
  Basis Set: 6-31G
    Blend: 6-31G
  Basis Set: (6-31G AUX)
    Blend: CC-PVDZ-JKFIT

    Orbital Energies (a.u.)
    -----------------------

    Doubly Occupied:

       1Ap   -20.563612     2Ap    -1.299058     3Ap    -0.680537
       4Ap    -0.517584     1App   -0.487716

  @DF-RHF Final Energy:   -75.96225899920941

   => Energetics <=

    Nuclear Repulsion Energy =              8.3728412848253058
    One-Electron Energy =                -121.5731856237803754
    Two-Electron Energy =                  37.2380853397456377
    Total Energy =                        -75.9622589992094248
  Basis Set: (6-31G AUX)
    Blend: CC-PVDZ-RI
    Molecular point group: cs

    Geometry (in Angstrom), charge = 0, multiplicity = 1:

       Center              X                  Y                   Z               Mass
    ------------   -----------------  -----------------  -----------------  -----------------
           O          0.053306617825     0.025180846486     0.000000000000    15.994914619560
           H          0.053306617825    -0.974819153514     0.000000000000     1.007825032070
           H         -0.899321326375     0.575180846486     0.000000000000     1.007825032070

  Basis Set: 6-31G
    Blend: 6-31G
  Basis Set: (6-31G AUX)
    Blend: CC-PVDZ-JKFIT
  Basis Set: (6-31G AUX)
    Blend: CC-PVDZ-JKFIT
	 Reference Energy          =     -75.9622589992094106 [Eh]
	 Singles Energy            =      -0.0000000000000000 [Eh]
	 Same-Spin Energy          =      -0.0319622754005512 [Eh]
	 Opposite-Spin Energy      =      -0.1039798178098584 [Eh]
	 Correlation Energy        =      -0.1359420932104096 [Eh]
	 Total Energy              =     -76.0982010924198136 [Eh]

	 ================> DF-SCS-MP2 Energies <==================
	-----------------------------------------------------------
	 SCS Same-Spin Scale       =       0.3333333333333333 [-]
	 SCS Opposite-Spin Scale   =       1.2000000000000000 [-]
	 SCS Same-Spin Energy      =      -0.0106540918001837 [Eh]
	 SCS Opposite-Spin Energy  =      -0.1247757813718300 [Eh]
	 SCS Correlation Energy    =      -0.1354298731720138 [Eh]
	 SCS Total Energy          =     -76.0976888723814255 [Eh]
	-----------------------------------------------------------

  -Total Gradient:
     Atom            X                  Y                   Z
    ------   -----------------  -----------------  -----------------
       1        0.042594628977    -0.033393150817    -0.000000000000
       2        0.020863692256    -0.025145724508     0.000000000000
       3       -0.063458321234     0.058538875325    -0.000000000000

*** Psi4 exiting successfully. Buy a developer a beer!
