                               Psi4 1.2a1.dev429

  ==> Input File <==

--------------------------------------------------------------------------
# density-fitted hartree fock energies and gradients with 6-31g
molecule h2o {
0 1
O 0.0000000000 0.0000000000 0.0000000000
H 0.0000000000 0.0000000000 0.8000000000
H 0.0000000000 0.0000000000 -1.0000000000
}

set basis 6-31g

gradient('mp2')
--------------------------------------------------------------------------

    Molecular point group: c2v
  Charge       = 0
  Multiplicity = 1
  Basis Set: 6-31G
    Blend: 6-31G
  Basis Set: (6-31G AUX)
    Blend: CC-PVDZ-JKFIT

    Orbital Energies (a.u.)
    -----------------------

    Doubly Occupied:

       1A1   -20.499823     2A1    -1.335785     3A1    -0.808656
       1B1    -0.476114     1B2    -0.476114

  @DF-RHF Final Energy:   -75.91079360673038

   => Energetics <=

    Nuclear Repulsion Energy =              9.8191770927255551
    One-Electron Energy =                -124.2669558432451282
    Two-Electron Energy =                  38.5369851437891953
    Total Energy =                        -75.9107936067303797
  Basis Set: (6-31G AUX)
    Blend: CC-PVDZ-RI
    Molecular point group: c2v

    Geometry (in Angstrom), charge = 0, multiplicity = 1:

       Center              X                  Y                   Z               Mass
    ------------   -----------------  -----------------  -----------------  -----------------
           O          0.000000000000     0.000000000000     0.011191487327    15.994914619560
           H          0.000000000000     0.000000000000     0.811191487327     1.007825032070
           H          0.000000000000     0.000000000000    -0.988808512673     1.007825032070

  Basis Set: 6-31G
    Blend: 6-31G
  Basis Set: (6-31G AUX)
    Blend: CC-PVDZ-JKFIT
  Basis Set: (6-31G AUX)
    Blend: CC-PVDZ-JKFIT
	 Reference Energy          =     -75.9107936067303797 [Eh]
	 Singles Energy            =      -0.0000000000000000 [Eh]
	 Same-Spin Energy          =      -0.0292039664817149 [Eh]
	 Opposite-Spin Energy      =      -0.0919773808965480 [Eh]
	 Correlation Energy        =      -0.1211813473782629 [Eh]
	 Total Energy              =     -76.0319749541086480 [Eh]

	 ================> DF-SCS-MP2 Energies <==================
	-----------------------------------------------------------
	 SCS Same-Spin Scale       =       0.3333333333333333 [-]
	 SCS Opposite-Spin Scale   =       1.2000000000000000 [-]
	 SCS Same-Spin Energy      =      -0.0097346554939050 [Eh]
	 SCS Opposite-Spin Energy  =      -0.1103728570758575 [Eh]
	 SCS Correlation Energy    =      -0.1201075125697625 [Eh]
	 SCS Total Energy          =     -76.0309011193001396 [Eh]
	-----------------------------------------------------------

  -Total Gradient:
     Atom            X                  Y                   Z
    ------   -----------------  -----------------  -----------------
       1       -0.000000000000    -0.000000000000     0.353894763389
       2        0.000000000000    -0.000000000000    -0.286478598679
       3       -0.000000000000     0.000000000000    -0.067416164710

*** Psi4 exiting successfully. Buy a developer a beer!
