                               Psi4 1.2a1.dev429

  ==> Input File <==

--------------------------------------------------------------------------
# density-fitted hartree fock energies and gradients with 6-31g
molecule h20 {
0 1
O 0.0000000000 0.0000000000 0.0000000000
H 0.0000000000 0.0000000000 1.1000000000
H 0.0000000000 1.2000000000 0.0000000000
}

set basis 6-31g

gradient('hf')
--------------------------------------------------------------------------

    Molecular point group: cs
  Charge       = 0
  Multiplicity = 1
  Basis Set: 6-31G
    Blend: 6-31G
  Basis Set: (6-31G AUX)
    Blend: CC-PVDZ-JKFIT

    Orbital Energies (a.u.)
    -----------------------

    Doubly Occupied:

       1Ap   -20.608496     2Ap    -1.291144     3Ap    -0.602458
       4Ap    -0.554376     1App   -0.504359

  @DF-RHF Final Energy:   -75.92662275580298

   => Energetics <=

    Nuclear Repulsion Energy =              7.7014805494615066
    One-Electron Energy =                -120.1345419956564626
    Two-Electron Energy =                  36.5064386903919598
    Total Energy =                        -75.9266227558029954
    Molecular point group: cs

    Geometry (in Angstrom), charge = 0, multiplicity = 1:

       Center              X                  Y                   Z               Mass
    ------------   -----------------  -----------------  -----------------  -----------------
           O          0.067148923963     0.061553180300     0.000000000000    15.994914619560
           H          0.067148923963    -1.038446819700     0.000000000000     1.007825032070
           H         -1.132851076037     0.061553180300     0.000000000000     1.007825032070

  Basis Set: 6-31G
    Blend: 6-31G
  Basis Set: (6-31G AUX)
    Blend: CC-PVDZ-JKFIT

  -Total Gradient:
     Atom            X                  Y                   Z
    ------   -----------------  -----------------  -----------------
       1        0.133912399057     0.107457285337     0.000000000000
       2       -0.020578565341    -0.088593598978     0.000000000000
       3       -0.113333833717    -0.018863686360     0.000000000000

*** Psi4 exiting successfully. Buy a developer a beer!
