                               Psi4 1.2a1.dev429

  ==> Input File <==

--------------------------------------------------------------------------
# density-fitted hartree fock energies and gradients with 6-31g
molecule h2o {
0 1
O 0.0000000000 0.0000000000 0.0000000000
H 0.0000000000 0.0000000000 1.5000000000
H 0.0000000000 1.2124355653 -0.7000000000
}

set basis 6-31g

gradient('mp2')
--------------------------------------------------------------------------

    Molecular point group: cs
  Charge       = 0
  Multiplicity = 1
  Basis Set: 6-31G
    Blend: 6-31G
  Basis Set: (6-31G AUX)
    Blend: CC-PVDZ-JKFIT

    Orbital Energies (a.u.)
    -----------------------

    Doubly Occupied:

       1Ap   -20.625579     2Ap    -1.210426     3Ap    -0.525563
       1App   -0.488781     4Ap    -0.465416

  @DF-RHF Final Energy:   -75.78047615156405

   => Energetics <=

    Nuclear Repulsion Energy =              6.0568103296872016
    One-Electron Energy =                -117.0430400962881379
    Two-Electron Energy =                  35.2057536150368904
    Total Energy =                        -75.7804761515640450
  Basis Set: (6-31G AUX)
    Blend: CC-PVDZ-RI
    Molecular point group: cs

    Geometry (in Angstrom), charge = 0, multiplicity = 1:

       Center              X                  Y                   Z               Mass
    ------------   -----------------  -----------------  -----------------  -----------------
           O          0.067844786321     0.044765949309     0.000000000000    15.994914619560
           H          0.067844786321    -1.455234050691     0.000000000000     1.007825032070
           H         -1.144590778979     0.744765949309     0.000000000000     1.007825032070

  Basis Set: 6-31G
    Blend: 6-31G
  Basis Set: (6-31G AUX)
    Blend: CC-PVDZ-JKFIT
  Basis Set: (6-31G AUX)
    Blend: CC-PVDZ-JKFIT
	 Reference Energy          =     -75.7804761515640450 [Eh]
	 Singles Energy            =      -0.0000000000000000 [Eh]
	 Same-Spin Energy          =      -0.0387685178559984 [Eh]
	 Opposite-Spin Energy      =      -0.1370982402734067 [Eh]
	 Correlation Energy        =      -0.1758667581294051 [Eh]
	 Total Energy              =     -75.9563429096934470 [Eh]

	 ================> DF-SCS-MP2 Energies <==================
	-----------------------------------------------------------
	 SCS Same-Spin Scale       =       0.3333333333333333 [-]
	 SCS Opposite-Spin Scale   =       1.2000000000000000 [-]
	 SCS Same-Spin Energy      =      -0.0129228392853328 [Eh]
	 SCS Opposite-Spin Energy  =      -0.1645178883280880 [Eh]
	 SCS Correlation Energy    =      -0.1774407276134208 [Eh]
	 SCS Total Energy          =     -75.9579168791774606 [Eh]
	-----------------------------------------------------------

  -Total Gradient:
     Atom            X                  Y                   Z
    ------   -----------------  -----------------  -----------------
       1        0.052061182414     0.025967435719     0.000000000000
       2        0.021358582309    -0.094780752221     0.000000000000
       3       -0.073419764724     0.068813316502    -0.000000000000

*** Psi4 exiting successfully. Buy a developer a beer!
