                               Psi4 1.2a1.dev429

  ==> Input File <==

--------------------------------------------------------------------------
# density-fitted hartree fock energies and gradients with 6-31g
molecule h2o {
0 1
O 0.0000000000 0.0000000000 0.0000000000
H 0.0000000000 0.0000000000 1.3000000000
H 0.0000000000 0.5500000000 -0.9526279442
}

set basis 6-31g

gradient('mp2')
--------------------------------------------------------------------------

    Molecular point group: cs
  Charge       = 0
  Multiplicity = 1
  Basis Set: 6-31G
    Blend: 6-31G
  Basis Set: (6-31G AUX)
    Blend: CC-PVDZ-JKFIT

    Orbital Energies (a.u.)
    -----------------------

    Doubly Occupied:

       1Ap   -20.542264     2Ap    -1.219375     3Ap    -0.616713
       1App   -0.452579     4Ap    -0.448651

  @DF-RHF Final Energy:   -75.86438835251425

   => Energetics <=

    Nuclear Repulsion Energy =              7.3332483282581817
    One-Electron Energy =                -119.8361095876065576
    Two-Electron Energy =                  36.6384729068341173
    Total Energy =                        -75.8643883525142542
  Basis Set: (6-31G AUX)
    Blend: CC-PVDZ-RI
    Molecular point group: cs

    Geometry (in Angstrom), charge = 0, multiplicity = 1:

       Center              X                  Y                   Z               Mass
    ------------   -----------------  -----------------  -----------------  -----------------
           O          0.030776590150     0.019438049802     0.000000000000    15.994914619560
           H          0.030776590150    -1.280561950198     0.000000000000     1.007825032070
           H         -0.519223409850     0.972065994002     0.000000000000     1.007825032070

  Basis Set: 6-31G
    Blend: 6-31G
  Basis Set: (6-31G AUX)
    Blend: CC-PVDZ-JKFIT
  Basis Set: (6-31G AUX)
    Blend: CC-PVDZ-JKFIT
	 Reference Energy          =     -75.8643883525142542 [Eh]
	 Singles Energy            =      -0.0000000000000000 [Eh]
	 Same-Spin Energy          =      -0.0340949100442169 [Eh]
	 Opposite-Spin Energy      =      -0.1104982528169838 [Eh]
	 Correlation Energy        =      -0.1445931628612008 [Eh]
	 Total Energy              =     -76.0089815153754529 [Eh]

	 ================> DF-SCS-MP2 Energies <==================
	-----------------------------------------------------------
	 SCS Same-Spin Scale       =       0.3333333333333333 [-]
	 SCS Opposite-Spin Scale   =       1.2000000000000000 [-]
	 SCS Same-Spin Energy      =      -0.0113649700147390 [Eh]
	 SCS Opposite-Spin Energy  =      -0.1325979033803806 [Eh]
	 SCS Correlation Energy    =      -0.1439628733951196 [Eh]
	 SCS Total Energy          =     -76.0083512259093794 [Eh]
	-----------------------------------------------------------

  -Total Gradient:
     Atom            X                  Y                   Z
    ------   -----------------  -----------------  -----------------
       1       -0.031690598481     0.026202924201    -0.000000000000
       2        0.036601116783    -0.121219922472    -0.000000000000
       3       -0.004910518302     0.095016998271     0.000000000000

*** Psi4 exiting successfully. Buy a developer a beer!
