                               Psi4 1.2a1.dev429

  ==> Input File <==

--------------------------------------------------------------------------
# density-fitted hartree fock energies and gradients with 6-31g
molecule h2o {
0 1
O 0.0000000000 0.0000000000 0.0000000000
H 0.0000000000 0.0000000000 1.4000000000
H 0.0000000000 0.4500000000 -0.7794228634
}

set basis 6-31g

gradient('mp2')
--------------------------------------------------------------------------

    Molecular point group: cs
  Charge       = 0
  Multiplicity = 1
  Basis Set: 6-31G
    Blend: 6-31G
  Basis Set: (6-31G AUX)
    Blend: CC-PVDZ-JKFIT

    Orbital Energies (a.u.)
    -----------------------

    Doubly Occupied:

       1Ap   -20.527687     2Ap    -1.266118     3Ap    -0.648443
       1App   -0.455879     4Ap    -0.449222

  @DF-RHF Final Energy:   -75.85134913429586

   => Energetics <=

    Nuclear Repulsion Energy =              7.9654573852552657
    One-Electron Energy =                -120.9389162699984155
    Two-Electron Energy =                  37.1221097504472937
    Total Energy =                        -75.8513491342958588
  Basis Set: (6-31G AUX)
    Blend: CC-PVDZ-RI
    Molecular point group: cs

    Geometry (in Angstrom), charge = 0, multiplicity = 1:

       Center              X                  Y                   Z               Mass
    ------------   -----------------  -----------------  -----------------  -----------------
           O          0.025180846486     0.034725905799     0.000000000000    15.994914619560
           H          0.025180846486    -1.365274094201     0.000000000000     1.007825032070
           H         -0.424819153514     0.814148769199     0.000000000000     1.007825032070

  Basis Set: 6-31G
    Blend: 6-31G
  Basis Set: (6-31G AUX)
    Blend: CC-PVDZ-JKFIT
  Basis Set: (6-31G AUX)
    Blend: CC-PVDZ-JKFIT
	 Reference Energy          =     -75.8513491342958588 [Eh]
	 Singles Energy            =      -0.0000000000000000 [Eh]
	 Same-Spin Energy          =      -0.0330788727926200 [Eh]
	 Opposite-Spin Energy      =      -0.1079915269696810 [Eh]
	 Correlation Energy        =      -0.1410703997623010 [Eh]
	 Total Energy              =     -75.9924195340581576 [Eh]

	 ================> DF-SCS-MP2 Energies <==================
	-----------------------------------------------------------
	 SCS Same-Spin Scale       =       0.3333333333333333 [-]
	 SCS Opposite-Spin Scale   =       1.2000000000000000 [-]
	 SCS Same-Spin Energy      =      -0.0110262909308733 [Eh]
	 SCS Opposite-Spin Energy  =      -0.1295898323636172 [Eh]
	 SCS Correlation Energy    =      -0.1406161232944905 [Eh]
	 SCS Total Energy          =     -75.9919652575903513 [Eh]
	-----------------------------------------------------------

  -Total Gradient:
     Atom            X                  Y                   Z
    ------   -----------------  -----------------  -----------------
       1       -0.119974358055     0.176945132936     0.000000000000
       2        0.032244892657    -0.125310687395    -0.000000000000
       3        0.087729465398    -0.051634445540    -0.000000000000

*** Psi4 exiting successfully. Buy a developer a beer!
