                               Psi4 1.2a1.dev429

  ==> Input File <==

--------------------------------------------------------------------------
# density-fitted hartree fock energies and gradients with 6-31g
molecule h2o {
0 1
O 0.0000000000 0.0000000000 0.0000000000
H 0.0000000000 0.0000000000 1.1000000000
H 0.0000000000 0.5000000000 -0.8660254038
}

set basis 6-31g

gradient('mp2')
--------------------------------------------------------------------------

    Molecular point group: cs
  Charge       = 0
  Multiplicity = 1
  Basis Set: 6-31G
    Blend: 6-31G
  Basis Set: (6-31G AUX)
    Blend: CC-PVDZ-JKFIT

    Orbital Energies (a.u.)
    -----------------------

    Doubly Occupied:

       1Ap   -20.528087     2Ap    -1.266773     3Ap    -0.697675
       4Ap    -0.469331     1App   -0.463879

  @DF-RHF Final Energy:   -75.93269071335618

   => Energetics <=

    Nuclear Repulsion Energy =              8.3428363137473251
    One-Electron Energy =                -121.6995622480553720
    Two-Electron Energy =                  37.4240352209518718
    Total Energy =                        -75.9326907133561804
  Basis Set: (6-31G AUX)
    Blend: CC-PVDZ-RI
    Molecular point group: cs

    Geometry (in Angstrom), charge = 0, multiplicity = 1:

       Center              X                  Y                   Z               Mass
    ------------   -----------------  -----------------  -----------------  -----------------
           O          0.027978718318     0.013092618641     0.000000000000    15.994914619560
           H          0.027978718318    -1.086907381359     0.000000000000     1.007825032070
           H         -0.472021281682     0.879118022441     0.000000000000     1.007825032070

  Basis Set: 6-31G
    Blend: 6-31G
  Basis Set: (6-31G AUX)
    Blend: CC-PVDZ-JKFIT
  Basis Set: (6-31G AUX)
    Blend: CC-PVDZ-JKFIT
	 Reference Energy          =     -75.9326907133561804 [Eh]
	 Singles Energy            =      -0.0000000000000000 [Eh]
	 Same-Spin Energy          =      -0.0319803675053710 [Eh]
	 Opposite-Spin Energy      =      -0.1012923080683239 [Eh]
	 Correlation Energy        =      -0.1332726755736949 [Eh]
	 Total Energy              =     -76.0659633889298732 [Eh]

	 ================> DF-SCS-MP2 Energies <==================
	-----------------------------------------------------------
	 SCS Same-Spin Scale       =       0.3333333333333333 [-]
	 SCS Opposite-Spin Scale   =       1.2000000000000000 [-]
	 SCS Same-Spin Energy      =      -0.0106601225017903 [Eh]
	 SCS Opposite-Spin Energy  =      -0.1215507696819887 [Eh]
	 SCS Correlation Energy    =      -0.1322108921837790 [Eh]
	 SCS Total Energy          =     -76.0649016055399585 [Eh]
	-----------------------------------------------------------

  -Total Gradient:
     Atom            X                  Y                   Z
    ------   -----------------  -----------------  -----------------
       1       -0.044568398111     0.046922045534    -0.000000000000
       2        0.033486851309    -0.101399317811    -0.000000000000
       3        0.011081546803     0.054477272277     0.000000000000

*** Psi4 exiting successfully. Buy a developer a beer!
