                               Psi4 1.2a1.dev429

  ==> Input File <==

--------------------------------------------------------------------------
# density-fitted hartree fock energies and gradients with 6-31g
molecule h2o {
0 1
O 0.0000000000 0.0000000000 0.0000000000
H 0.0000000000 0.0000000000 1.2000000000
H 0.0000000000 0.4104241720 -1.1276311449
}

set basis 6-31g

gradient('mp2')
--------------------------------------------------------------------------

    Molecular point group: c2v
  Charge       = 0
  Multiplicity = 1
  Basis Set: 6-31G
    Blend: 6-31G
  Basis Set: (6-31G AUX)
    Blend: CC-PVDZ-JKFIT

    Orbital Energies (a.u.)
    -----------------------

    Doubly Occupied:

       1A1   -20.526424     2A1    -1.201233     1B2    -0.612208
       1B1    -0.440160     3A1    -0.437534

  @DF-RHF Final Energy:   -75.85548641478682

   => Energetics <=

    Nuclear Repulsion Energy =              7.2795880396493686
    One-Electron Energy =                -119.8350320803615858
    Two-Electron Energy =                  36.6999576259253857
    Total Energy =                        -75.8554864147868386
  Basis Set: (6-31G AUX)
    Blend: CC-PVDZ-RI
    Molecular point group: c2v

    Geometry (in Angstrom), charge = 0, multiplicity = 1:

       Center              X                  Y                   Z               Mass
    ------------   -----------------  -----------------  -----------------  -----------------
           O         -0.000000000000     0.000000000000    -0.023320576558    15.994914619560
           H          0.000000000000    -1.181769303594     0.185057236651     1.007825032070
           H         -0.000000000000     1.181769303594     0.185057236651     1.007825032070

  Basis Set: 6-31G
    Blend: 6-31G
  Basis Set: (6-31G AUX)
    Blend: CC-PVDZ-JKFIT
  Basis Set: (6-31G AUX)
    Blend: CC-PVDZ-JKFIT
	 Reference Energy          =     -75.8554864147868244 [Eh]
	 Singles Energy            =      -0.0000000000000000 [Eh]
	 Same-Spin Energy          =      -0.0338808696225703 [Eh]
	 Opposite-Spin Energy      =      -0.1078826284026344 [Eh]
	 Correlation Energy        =      -0.1417634980252047 [Eh]
	 Total Energy              =     -75.9972499128120234 [Eh]

	 ================> DF-SCS-MP2 Energies <==================
	-----------------------------------------------------------
	 SCS Same-Spin Scale       =       0.3333333333333333 [-]
	 SCS Opposite-Spin Scale   =       1.2000000000000000 [-]
	 SCS Same-Spin Energy      =      -0.0112936232075234 [Eh]
	 SCS Opposite-Spin Energy  =      -0.1294591540831613 [Eh]
	 SCS Correlation Energy    =      -0.1407527772906847 [Eh]
	 SCS Total Energy          =     -75.9962391920775104 [Eh]
	-----------------------------------------------------------

  -Total Gradient:
     Atom            X                  Y                   Z
    ------   -----------------  -----------------  -----------------
       1        0.000000000000     0.000000000012     0.027788465805
       2       -0.000000000000    -0.123276087829    -0.013894232902
       3       -0.000000000000     0.123276087817    -0.013894232902

*** Psi4 exiting successfully. Buy a developer a beer!
