                               Psi4 1.2.1 release

  ==> Input File <==

--------------------------------------------------------------------------
# density fitted hartree fock
molecule h2o {
0 1
H 0.0000000000 0.0000000000 1.2000000000
H 0.0000000000 0.7361215932 -0.4250000000
O 0.0000000000 0.0000000000 0.0000000000
}

set basis 6-31g
energy('hf')

--------------------------------------------------------------------------

    Molecular point group: cs

    Geometry (in Angstrom), charge = 0, multiplicity = 1:

       Center              X                  Y                   Z               Mass
    ------------   -----------------  -----------------  -----------------  -----------------
         H            0.041191477408    -1.156632986607     0.000000000000     1.007825032070
         H           -0.694930115792     0.468367013393     0.000000000000     1.007825032070
         O            0.041191477408     0.043367013393     0.000000000000    15.994914619560

  Charge       = 0
  Multiplicity = 1
  Basis Set: 6-31G
    Blend: 6-31G
  Basis Set: (6-31G AUX)
    Blend: CC-PVDZ-JKFIT

    Orbital Energies [Eh]
    ---------------------

    Doubly Occupied:

       1Ap   -20.555695     2Ap    -1.334982     3Ap    -0.699029
       4Ap    -0.516216     1App   -0.490594

  @DF-RHF Final Energy:   -75.92810023686738

   => Energetics <=

    Nuclear Repulsion Energy =              8.8049706980424922
    One-Electron Energy =                -122.2731102631548339
    Two-Electron Energy =                  37.5400393282449656
    Total Energy =                        -75.9281002368673796

  Dipole Moment: [D]
     X:    -1.8902      Y:    -1.4325      Z:     0.0000     Total:     2.3717

*** Psi4 exiting successfully. Buy a developer a beer!
