                               Psi4 1.2a1.dev429

  ==> Input File <==

--------------------------------------------------------------------------
# density-fitted hartree fock energies and gradients with 6-31g
molecule h20 {
0 1
O 0.0000000000 0.0000000000 0.0000000000
H 0.0000000000 0.0000000000 0.9000000000
H 0.0000000000 1.0724622204 -0.8999026536
}

set basis 6-31g

gradient('hf')
--------------------------------------------------------------------------

    Molecular point group: cs
  Charge       = 0
  Multiplicity = 1
  Basis Set: 6-31G
    Blend: 6-31G
  Basis Set: (6-31G AUX)
    Blend: CC-PVDZ-JKFIT

    Orbital Energies (a.u.)
    -----------------------

    Doubly Occupied:

       1Ap   -20.559356     2Ap    -1.291887     3Ap    -0.652380
       1App   -0.478229     4Ap    -0.476105

  @DF-RHF Final Energy:   -75.87674103412364

   => Energetics <=

    Nuclear Repulsion Energy =              7.9802347153525819
    One-Electron Energy =                -120.7980363646863111
    Two-Electron Energy =                  36.9410606152100982
    Total Energy =                        -75.8767410341236257
    Molecular point group: cs

    Geometry (in Angstrom), charge = 0, multiplicity = 1:

       Center              X                  Y                   Z               Mass
    ------------   -----------------  -----------------  -----------------  -----------------
           O          0.060012236743     0.000005447255     0.000000000000    15.994914619560
           H          0.060012236743    -0.899994552745     0.000000000000     1.007825032070
           H         -1.012449983657     0.899908100855     0.000000000000     1.007825032070

  Basis Set: 6-31G
    Blend: 6-31G
  Basis Set: (6-31G AUX)
    Blend: CC-PVDZ-JKFIT

  -Total Gradient:
     Atom            X                  Y                   Z
    ------   -----------------  -----------------  -----------------
       1        0.055985156176    -0.180299792115     0.000000000000
       2        0.037145096523     0.070982422917     0.000000000000
       3       -0.093130252699     0.109317369199     0.000000000000

*** Psi4 exiting successfully. Buy a developer a beer!
