                               Psi4 1.2a1.dev429

  ==> Input File <==

--------------------------------------------------------------------------
# density-fitted hartree fock energies and gradients with 6-31g
molecule h2o {
0 1
O 0.0000000000 0.0000000000 0.0000000000
H 0.0000000000 0.0000000000 1.5000000000
H 0.0000000000 1.2802500789 -0.2257426310
}

set basis 6-31g

gradient('mp2')
--------------------------------------------------------------------------

    Molecular point group: cs
  Charge       = 0
  Multiplicity = 1
  Basis Set: 6-31G
    Blend: 6-31G
  Basis Set: (6-31G AUX)
    Blend: CC-PVDZ-JKFIT

    Orbital Energies (a.u.)
    -----------------------

    Doubly Occupied:

       1Ap   -20.637675     2Ap    -1.232441     3Ap    -0.541541
       1App   -0.501382     4Ap    -0.489304

  @DF-RHF Final Energy:   -75.81511565186692

   => Energetics <=

    Nuclear Repulsion Energy =              6.3250229889334229
    One-Electron Energy =                -117.4755916524451891
    Two-Electron Energy =                  35.3354530116448444
    Total Energy =                        -75.8151156518669183
  Basis Set: (6-31G AUX)
    Blend: CC-PVDZ-RI
    Molecular point group: cs

    Geometry (in Angstrom), charge = 0, multiplicity = 1:

       Center              X                  Y                   Z               Mass
    ------------   -----------------  -----------------  -----------------  -----------------
           O          0.071639512669     0.071304175984     0.000000000000    15.994914619560
           H          0.071639512669    -1.428695824016     0.000000000000     1.007825032070
           H         -1.208610566231     0.297046806984     0.000000000000     1.007825032070

  Basis Set: 6-31G
    Blend: 6-31G
  Basis Set: (6-31G AUX)
    Blend: CC-PVDZ-JKFIT
  Basis Set: (6-31G AUX)
    Blend: CC-PVDZ-JKFIT
	 Reference Energy          =     -75.8151156518669183 [Eh]
	 Singles Energy            =      -0.0000000000000000 [Eh]
	 Same-Spin Energy          =      -0.0387647754182626 [Eh]
	 Opposite-Spin Energy      =      -0.1353480387804765 [Eh]
	 Correlation Energy        =      -0.1741128141987391 [Eh]
	 Total Energy              =     -75.9892284660656543 [Eh]

	 ================> DF-SCS-MP2 Energies <==================
	-----------------------------------------------------------
	 SCS Same-Spin Scale       =       0.3333333333333333 [-]
	 SCS Opposite-Spin Scale   =       1.2000000000000000 [-]
	 SCS Same-Spin Energy      =      -0.0129215918060875 [Eh]
	 SCS Opposite-Spin Energy  =      -0.1624176465365718 [Eh]
	 SCS Correlation Energy    =      -0.1753392383426593 [Eh]
	 SCS Total Energy          =     -75.9904548902095769 [Eh]
	-----------------------------------------------------------

  -Total Gradient:
     Atom            X                  Y                   Z
    ------   -----------------  -----------------  -----------------
       1        0.085336364755     0.070956911538    -0.000000000000
       2        0.007221407044    -0.095738281041     0.000000000000
       3       -0.092557771799     0.024781369503     0.000000000000

*** Psi4 exiting successfully. Buy a developer a beer!
