                               Psi4 1.3.1 release

  ==> Input File <==

--------------------------------------------------------------------------
# density fitted hartree fock
molecule h2o {
0 1
H 0.0000000000 0.0000000000 1.1000000000
H 0.0000000000 1.0382723675 -0.1564943795
O 0.0000000000 0.0000000000 0.0000000000
}

set basis 6-31g
energy('hf')

--------------------------------------------------------------------------

    Molecular point group: cs

    Geometry (in Angstrom), charge = 0, multiplicity = 1:

       Center              X                  Y                   Z               Mass
    ------------   -----------------  -----------------  -----------------  -----------------
         H            0.058099060224    -1.047203844018     0.000000000000     1.007825032230
         H           -0.980173307276     0.209290535482     0.000000000000     1.007825032230
         O            0.058099060224     0.052796155982     0.000000000000    15.994914619570

  Charge       = 0
  Multiplicity = 1
  Basis Set: 6-31G
    Blend: 6-31G
  Basis Set: (6-31G AUX)
    Blend: CC-PVDZ-JKFIT

    Orbital Energies [Eh]
    ---------------------

    Doubly Occupied:

       1Ap   -20.588244     2Ap    -1.308751     3Ap    -0.641853
       4Ap    -0.553782     1App   -0.500322

  @DF-RHF Final Energy:   -75.95917216344510

   => Energetics <=

    Nuclear Repulsion Energy =              8.2050433599974379
    One-Electron Energy =                -121.1425184044813079
    Two-Electron Energy =                  36.9783028810387719
    Total Energy =                        -75.9591721634451034

  Dipole Moment: [D]
     X:    -2.0846      Y:    -1.7944      Z:     0.0000     Total:     2.7505

*** Psi4 exiting successfully. Buy a developer a beer!
