                               Psi4 1.2a1.dev429

  ==> Input File <==

--------------------------------------------------------------------------
# density-fitted hartree fock energies and gradients with 6-31g
molecule h20 {
0 1
O 0.0000000000 0.0000000000 0.0000000000
H 0.0000000000 0.0000000000 0.7000000000
H 0.0000000000 0.6000000000 -1.0392304845
}

set basis 6-31g

gradient('hf')
--------------------------------------------------------------------------

    Molecular point group: cs
  Charge       = 0
  Multiplicity = 1
  Basis Set: 6-31G
    Blend: 6-31G
  Basis Set: (6-31G AUX)
    Blend: CC-PVDZ-JKFIT

    Orbital Energies (a.u.)
    -----------------------

    Doubly Occupied:

       1Ap   -20.509090     2Ap    -1.374501     3Ap    -0.755710
       4Ap    -0.481488     1App   -0.476510

  @DF-RHF Final Energy:   -75.78746163155235

   => Energetics <=

    Nuclear Repulsion Energy =              9.8632126656497281
    One-Electron Energy =                -124.1067490922210936
    Two-Electron Energy =                  38.4560747950190276
    Total Energy =                        -75.7874616315523326
    Molecular point group: cs

    Geometry (in Angstrom), charge = 0, multiplicity = 1:

       Center              X                  Y                   Z               Mass
    ------------   -----------------  -----------------  -----------------  -----------------
           O          0.033574461982    -0.018982468341     0.000000000000    15.994914619560
           H          0.033574461982    -0.718982468341     0.000000000000     1.007825032070
           H         -0.566425538018     1.020248016159     0.000000000000     1.007825032070

  Basis Set: 6-31G
    Blend: 6-31G
  Basis Set: (6-31G AUX)
    Blend: CC-PVDZ-JKFIT

  -Total Gradient:
     Atom            X                  Y                   Z
    ------   -----------------  -----------------  -----------------
       1        0.013694324282    -0.877209893581     0.000000000000
       2        0.043124377969     0.728485240441     0.000000000000
       3       -0.056818702251     0.148724653139     0.000000000000

*** Psi4 exiting successfully. Buy a developer a beer!
