                               Psi4 1.2a1.dev429

  ==> Input File <==

--------------------------------------------------------------------------
# density-fitted hartree fock energies and gradients with 6-31g
molecule h2o {
0 1
O 0.0000000000 0.0000000000 0.0000000000
H 0.0000000000 0.0000000000 1.0000000000
H 0.0000000000 1.3787308542 -0.2431074487
}

set basis 6-31g

gradient('mp2')
--------------------------------------------------------------------------

    Molecular point group: cs
  Charge       = 0
  Multiplicity = 1
  Basis Set: 6-31G
    Blend: 6-31G
  Basis Set: (6-31G AUX)
    Blend: CC-PVDZ-JKFIT

    Orbital Energies (a.u.)
    -----------------------

    Doubly Occupied:

       1Ap   -20.604316     2Ap    -1.288905     3Ap    -0.619592
       4Ap    -0.511027     1App   -0.500396

  @DF-RHF Final Energy:   -75.89599440246155

   => Energetics <=

    Nuclear Repulsion Energy =              7.5423432789732088
    One-Electron Energy =                -119.8282022038375629
    Two-Electron Energy =                  36.3898645224028172
    Total Energy =                        -75.8959944024615396
  Basis Set: (6-31G AUX)
    Blend: CC-PVDZ-RI
    Molecular point group: cs

    Geometry (in Angstrom), charge = 0, multiplicity = 1:

       Center              X                  Y                   Z               Mass
    ------------   -----------------  -----------------  -----------------  -----------------
           O          0.077150244412     0.042353766980     0.000000000000    15.994914619560
           H          0.077150244412    -0.957646233020     0.000000000000     1.007825032070
           H         -1.301580609788     0.285461215680     0.000000000000     1.007825032070

  Basis Set: 6-31G
    Blend: 6-31G
  Basis Set: (6-31G AUX)
    Blend: CC-PVDZ-JKFIT
  Basis Set: (6-31G AUX)
    Blend: CC-PVDZ-JKFIT
	 Reference Energy          =     -75.8959944024615538 [Eh]
	 Singles Energy            =      -0.0000000000000000 [Eh]
	 Same-Spin Energy          =      -0.0342899536904052 [Eh]
	 Opposite-Spin Energy      =      -0.1171517953548541 [Eh]
	 Correlation Energy        =      -0.1514417490452593 [Eh]
	 Total Energy              =     -76.0474361515068153 [Eh]

	 ================> DF-SCS-MP2 Energies <==================
	-----------------------------------------------------------
	 SCS Same-Spin Scale       =       0.3333333333333333 [-]
	 SCS Opposite-Spin Scale   =       1.2000000000000000 [-]
	 SCS Same-Spin Energy      =      -0.0114299845634684 [Eh]
	 SCS Opposite-Spin Energy  =      -0.1405821544258249 [Eh]
	 SCS Correlation Energy    =      -0.1520121389892933 [Eh]
	 SCS Total Energy          =     -76.0480065414508459 [Eh]
	-----------------------------------------------------------

  -Total Gradient:
     Atom            X                  Y                   Z
    ------   -----------------  -----------------  -----------------
       1        0.100851951860    -0.013321868920     0.000000000000
       2        0.002801787883    -0.006987225711    -0.000000000000
       3       -0.103653739743     0.020309094631    -0.000000000000

*** Psi4 exiting successfully. Buy a developer a beer!
