                               Psi4 1.2a1.dev429

  ==> Input File <==

--------------------------------------------------------------------------
# density-fitted hartree fock energies and gradients with 6-31g
molecule h2o {
0 1
O 0.0000000000 0.0000000000 0.0000000000
H 0.0000000000 0.0000000000 0.8000000000
H 0.0000000000 0.3420201433 -0.9396926208
}

set basis 6-31g

gradient('mp2')
--------------------------------------------------------------------------

    Molecular point group: cs
  Charge       = 0
  Multiplicity = 1
  Basis Set: 6-31G
    Blend: 6-31G
  Basis Set: (6-31G AUX)
    Blend: CC-PVDZ-JKFIT

    Orbital Energies (a.u.)
    -----------------------

    Doubly Occupied:

       1Ap   -20.505923     2Ap    -1.343179     3Ap    -0.805159
       4Ap    -0.484010     1App   -0.479878

  @DF-RHF Final Energy:   -75.91808467766595

   => Energetics <=

    Nuclear Repulsion Energy =              9.8236550450042639
    One-Electron Energy =                -124.2471823543921801
    Two-Electron Energy =                  38.5054426317219693
    Total Energy =                        -75.9180846776659450
  Basis Set: (6-31G AUX)
    Blend: CC-PVDZ-RI
    Molecular point group: cs

    Geometry (in Angstrom), charge = 0, multiplicity = 1:

       Center              X                  Y                   Z               Mass
    ------------   -----------------  -----------------  -----------------  -----------------
           O          0.019138570497    -0.007816840977     0.000000000000    15.994914619560
           H          0.019138570497    -0.807816840977     0.000000000000     1.007825032070
           H         -0.322881572803     0.931875779823     0.000000000000     1.007825032070

  Basis Set: 6-31G
    Blend: 6-31G
  Basis Set: (6-31G AUX)
    Blend: CC-PVDZ-JKFIT
  Basis Set: (6-31G AUX)
    Blend: CC-PVDZ-JKFIT
	 Reference Energy          =     -75.9180846776659450 [Eh]
	 Singles Energy            =      -0.0000000000000000 [Eh]
	 Same-Spin Energy          =      -0.0293481159972875 [Eh]
	 Opposite-Spin Energy      =      -0.0923762817397072 [Eh]
	 Correlation Energy        =      -0.1217243977369947 [Eh]
	 Total Energy              =     -76.0398090754029425 [Eh]

	 ================> DF-SCS-MP2 Energies <==================
	-----------------------------------------------------------
	 SCS Same-Spin Scale       =       0.3333333333333333 [-]
	 SCS Opposite-Spin Scale   =       1.2000000000000000 [-]
	 SCS Same-Spin Energy      =      -0.0097827053324292 [Eh]
	 SCS Opposite-Spin Energy  =      -0.1108515380876487 [Eh]
	 SCS Correlation Energy    =      -0.1206342434200778 [Eh]
	 SCS Total Energy          =     -76.0387189210860299 [Eh]
	-----------------------------------------------------------

  -Total Gradient:
     Atom            X                  Y                   Z
    ------   -----------------  -----------------  -----------------
       1       -0.026784679422    -0.357139294125     0.000000000000
       2        0.027488109751     0.290910750376    -0.000000000000
       3       -0.000703430329     0.066228543748     0.000000000000

*** Psi4 exiting successfully. Buy a developer a beer!
