                               Psi4 1.2a1.dev429

  ==> Input File <==

--------------------------------------------------------------------------
# density-fitted hartree fock energies and gradients with 6-31g
molecule h20 {
0 1
O 0.0000000000 0.0000000000 0.0000000000
H 0.0000000000 0.0000000000 0.7000000000
H 0.0000000000 0.5500000000 -0.9526279442
}

set basis 6-31g

gradient('hf')
--------------------------------------------------------------------------

    Molecular point group: cs
  Charge       = 0
  Multiplicity = 1
  Basis Set: 6-31G
    Blend: 6-31G
  Basis Set: (6-31G AUX)
    Blend: CC-PVDZ-JKFIT

    Orbital Energies (a.u.)
    -----------------------

    Doubly Occupied:

       1Ap   -20.508733     2Ap    -1.385094     3Ap    -0.792546
       4Ap    -0.491892     1App   -0.483962

  @DF-RHF Final Energy:   -75.81547804485692

   => Energetics <=

    Nuclear Repulsion Energy =             10.2001210088803607
    One-Electron Energy =                -124.7067466695967681
    Two-Electron Energy =                  38.6911476158594922
    Total Energy =                        -75.8154780448569170
    Molecular point group: cs

    Geometry (in Angstrom), charge = 0, multiplicity = 1:

       Center              X                  Y                   Z               Mass
    ------------   -----------------  -----------------  -----------------  -----------------
           O          0.030776590150    -0.014136412180     0.000000000000    15.994914619560
           H          0.030776590150    -0.714136412180     0.000000000000     1.007825032070
           H         -0.519223409850     0.938491532020     0.000000000000     1.007825032070

  Basis Set: 6-31G
    Blend: 6-31G
  Basis Set: (6-31G AUX)
    Blend: CC-PVDZ-JKFIT

  -Total Gradient:
     Atom            X                  Y                   Z
    ------   -----------------  -----------------  -----------------
       1        0.008511442640    -0.853164278238     0.000000000000
       2        0.038173250868     0.723719879942     0.000000000000
       3       -0.046684693507     0.129444398295     0.000000000000

*** Psi4 exiting successfully. Buy a developer a beer!
