                               Psi4 1.2a1.dev429

  ==> Input File <==

--------------------------------------------------------------------------
# density-fitted hartree fock energies and gradients with 6-31g
molecule o2 {
0 3
O 0.0000000000 0.0000000000 0.0000000000
O 0.0000000000 0.0000000000 1.4363636364
}

set basis 6-31g
set reference rohf

gradient('scf')
--------------------------------------------------------------------------

    Molecular point group: d2h
  Charge       = 0
  Multiplicity = 3
  Basis Set: 6-31G
    Blend: 6-31G
  Basis Set: (6-31G AUX)
    Blend: CC-PVDZ-JKFIT

    Orbital Energies (a.u.)
    -----------------------

    Doubly Occupied:

       1Ag   -20.782414     1B1u  -20.781985     2Ag    -1.515244
       2B1u   -1.174484     3Ag    -0.658633     1B3u   -0.640660
       1B2u   -0.640660

    Singly Occupied:

       1B2g   -0.300179     1B3g   -0.300179

  @DF-ROHF Final Energy:  -149.46584972570824

   => Energetics <=

    Nuclear Repulsion Energy =             23.5785287872106650
    One-Electron Energy =                -252.4769115794698564
    Two-Electron Energy =                  79.4325330665509597
    Total Energy =                       -149.4658497257082104
    Molecular point group: d2h

    Geometry (in Angstrom), charge = 0, multiplicity = 3:

       Center              X                  Y                   Z               Mass
    ------------   -----------------  -----------------  -----------------  -----------------
           O          0.000000000000     0.000000000000    -0.718181818200    15.994914619560
           O          0.000000000000     0.000000000000     0.718181818200    15.994914619560

  Basis Set: 6-31G
    Blend: 6-31G
  Basis Set: (6-31G AUX)
    Blend: CC-PVDZ-JKFIT

  -Total Gradient:
     Atom            X                  Y                   Z
    ------   -----------------  -----------------  -----------------
       1        0.000000000000    -0.000000000000    -0.205689316467
       2        0.000000000000     0.000000000000     0.205689316467

*** Psi4 exiting successfully. Buy a developer a beer!
