                               Psi4 1.2a1.dev429

  ==> Input File <==

--------------------------------------------------------------------------
# density-fitted hartree fock energies and gradients with 6-31g
molecule h20 {
0 1
O 0.0000000000 0.0000000000 0.0000000000
O 0.0000000000 0.0000000000 1.4363636364
}

set basis 6-31g

gradient('hf')
--------------------------------------------------------------------------

    Molecular point group: d2h
  Charge       = 0
  Multiplicity = 1
  Basis Set: 6-31G
    Blend: 6-31G
  Basis Set: (6-31G AUX)
    Blend: CC-PVDZ-JKFIT

    Orbital Energies (a.u.)
    -----------------------

    Doubly Occupied:

       1Ag   -20.790520     1B1u  -20.790087     2Ag    -1.519024
       2B1u   -1.178102     1B3u   -0.718462     3Ag    -0.662282
       1B2u   -0.571574     1B2g   -0.550276

  @DF-RHF Final Energy:  -149.40274365824806

   => Energetics <=

    Nuclear Repulsion Energy =             23.5785287872106650
    One-Electron Energy =                -252.4018893123406428
    Two-Electron Energy =                  79.4206168668819004
    Total Energy =                       -149.4027436582480846
    Molecular point group: d2h

    Geometry (in Angstrom), charge = 0, multiplicity = 1:

       Center              X                  Y                   Z               Mass
    ------------   -----------------  -----------------  -----------------  -----------------
           O          0.000000000000     0.000000000000    -0.718181818200    15.994914619560
           O          0.000000000000     0.000000000000     0.718181818200    15.994914619560

  Basis Set: 6-31G
    Blend: 6-31G
  Basis Set: (6-31G AUX)
    Blend: CC-PVDZ-JKFIT

  -Total Gradient:
     Atom            X                  Y                   Z
    ------   -----------------  -----------------  -----------------
       1        0.000000000000    -0.000000000000    -0.198601002108
       2        0.000000000000     0.000000000000     0.198601002108

*** Psi4 exiting successfully. Buy a developer a beer!
