                               Psi4 1.2.1 release

  ==> Input File <==

--------------------------------------------------------------------------
# density fitted hartree fock
molecule h2o {
0 1
H 0.0000000000 0.0000000000 1.1125000000
H 0.0000000000 1.0162309829 -0.1337893470
O 0.0000000000 0.0000000000 0.0000000000
}

set basis 6-31g
energy('hf')

--------------------------------------------------------------------------

    Molecular point group: cs

    Geometry (in Angstrom), charge = 0, multiplicity = 1:

       Center              X                  Y                   Z               Mass
    ------------   -----------------  -----------------  -----------------  -----------------
         H            0.056865680833    -1.057733860650     0.000000000000     1.007825032070
         H           -0.959365302067     0.188555486350     0.000000000000     1.007825032070
         O            0.056865680833     0.054766139350     0.000000000000    15.994914619560

  Charge       = 0
  Multiplicity = 1
  Basis Set: 6-31G
    Blend: 6-31G
  Basis Set: (6-31G AUX)
    Blend: CC-PVDZ-JKFIT

    Orbital Energies [Eh]
    ---------------------

    Doubly Occupied:

       1Ap   -20.587711     2Ap    -1.313304     3Ap    -0.643924
       4Ap    -0.556069     1App   -0.501138

  @DF-RHF Final Energy:   -75.95940081671604

   => Energetics <=

    Nuclear Repulsion Energy =              8.2645541387783688
    One-Electron Energy =                -121.2436122987350586
    Two-Electron Energy =                  37.0196573432406524
    Total Energy =                        -75.9594008167160410

  Dipole Moment: [D]
     X:    -2.0798      Y:    -1.8226      Z:     0.0000     Total:     2.7654

*** Psi4 exiting successfully. Buy a developer a beer!
