                               Psi4 1.2a1.dev429

  ==> Input File <==

--------------------------------------------------------------------------
# density-fitted hartree fock energies and gradients with 6-31g
molecule h2o {
0 1
O 0.0000000000 0.0000000000 0.0000000000
H 0.0000000000 0.0000000000 1.4000000000
H 0.0000000000 1.4095389312 -0.5130302150
}

set basis 6-31g

gradient('mp2')
--------------------------------------------------------------------------

    Molecular point group: cs
  Charge       = 0
  Multiplicity = 1
  Basis Set: 6-31G
    Blend: 6-31G
  Basis Set: (6-31G AUX)
    Blend: CC-PVDZ-JKFIT

    Orbital Energies (a.u.)
    -----------------------

    Doubly Occupied:

       1Ap   -20.635973     2Ap    -1.217984     3Ap    -0.523564
       1App   -0.496151     4Ap    -0.477112

  @DF-RHF Final Energy:   -75.78742679996783

   => Energetics <=

    Nuclear Repulsion Energy =              6.0688440248213711
    One-Electron Energy =                -117.0109748201971342
    Two-Electron Energy =                  35.1547039954079210
    Total Energy =                        -75.7874267999678466
  Basis Set: (6-31G AUX)
    Blend: CC-PVDZ-RI
    Molecular point group: cs

    Geometry (in Angstrom), charge = 0, multiplicity = 1:

       Center              X                  Y                   Z               Mass
    ------------   -----------------  -----------------  -----------------  -----------------
           O          0.078874185429     0.049632555542     0.000000000000    15.994914619560
           H          0.078874185429    -1.350367444458     0.000000000000     1.007825032070
           H         -1.330664745771     0.562662770542     0.000000000000     1.007825032070

  Basis Set: 6-31G
    Blend: 6-31G
  Basis Set: (6-31G AUX)
    Blend: CC-PVDZ-JKFIT
  Basis Set: (6-31G AUX)
    Blend: CC-PVDZ-JKFIT
	 Reference Energy          =     -75.7874267999678324 [Eh]
	 Singles Energy            =      -0.0000000000000000 [Eh]
	 Same-Spin Energy          =      -0.0392586531881756 [Eh]
	 Opposite-Spin Energy      =      -0.1386485185443084 [Eh]
	 Correlation Energy        =      -0.1779071717324840 [Eh]
	 Total Energy              =     -75.9653339717003178 [Eh]

	 ================> DF-SCS-MP2 Energies <==================
	-----------------------------------------------------------
	 SCS Same-Spin Scale       =       0.3333333333333333 [-]
	 SCS Opposite-Spin Scale   =       1.2000000000000000 [-]
	 SCS Same-Spin Energy      =      -0.0130862177293919 [Eh]
	 SCS Opposite-Spin Energy  =      -0.1663782222531700 [Eh]
	 SCS Correlation Energy    =      -0.1794644399825619 [Eh]
	 SCS Total Energy          =     -75.9668912399503995 [Eh]
	-----------------------------------------------------------

  -Total Gradient:
     Atom            X                  Y                   Z
    ------   -----------------  -----------------  -----------------
       1        0.068028196418     0.050907010876     0.000000000000
       2        0.016005384881    -0.097389800506    -0.000000000000
       3       -0.084033581300     0.046482789631    -0.000000000000

*** Psi4 exiting successfully. Buy a developer a beer!
