                               Psi4 1.2a1.dev429

  ==> Input File <==

--------------------------------------------------------------------------
# density-fitted hartree fock energies and gradients with 6-31g
molecule h2o {
0 1
O 0.0000000000 0.0000000000 0.0000000000
H 0.0000000000 0.0000000000 0.8000000000
H 0.0000000000 0.9848077530 -0.1736481777
}

set basis 6-31g

gradient('mp2')
--------------------------------------------------------------------------

    Molecular point group: cs
  Charge       = 0
  Multiplicity = 1
  Basis Set: 6-31G
    Blend: 6-31G
  Basis Set: (6-31G AUX)
    Blend: CC-PVDZ-JKFIT

    Orbital Energies (a.u.)
    -----------------------

    Doubly Occupied:

       1Ap   -20.551645     2Ap    -1.407738     3Ap    -0.735452
       4Ap    -0.575654     1App   -0.507989

  @DF-RHF Final Energy:   -75.94306280501188

   => Energetics <=

    Nuclear Repulsion Energy =              9.9073058004961521
    One-Electron Energy =                -124.1437821679107998
    Two-Electron Energy =                  38.2934135624027761
    Total Energy =                        -75.9430628050118770
  Basis Set: (6-31G AUX)
    Blend: CC-PVDZ-RI
    Molecular point group: cs

    Geometry (in Angstrom), charge = 0, multiplicity = 1:

       Center              X                  Y                   Z               Mass
    ------------   -----------------  -----------------  -----------------  -----------------
           O          0.055107317437     0.035049042408     0.000000000000    15.994914619560
           H          0.055107317437    -0.764950957592     0.000000000000     1.007825032070
           H         -0.929700435563     0.208697220108     0.000000000000     1.007825032070

  Basis Set: 6-31G
    Blend: 6-31G
  Basis Set: (6-31G AUX)
    Blend: CC-PVDZ-JKFIT
  Basis Set: (6-31G AUX)
    Blend: CC-PVDZ-JKFIT
	 Reference Energy          =     -75.9430628050118770 [Eh]
	 Singles Energy            =      -0.0000000000000000 [Eh]
	 Same-Spin Energy          =      -0.0286983858345784 [Eh]
	 Opposite-Spin Energy      =      -0.0946791829556092 [Eh]
	 Correlation Energy        =      -0.1233775687901875 [Eh]
	 Total Energy              =     -76.0664403738020667 [Eh]

	 ================> DF-SCS-MP2 Energies <==================
	-----------------------------------------------------------
	 SCS Same-Spin Scale       =       0.3333333333333333 [-]
	 SCS Opposite-Spin Scale   =       1.2000000000000000 [-]
	 SCS Same-Spin Energy      =      -0.0095661286115261 [Eh]
	 SCS Opposite-Spin Energy  =      -0.1136150195467310 [Eh]
	 SCS Correlation Energy    =      -0.1231811481582571 [Eh]
	 SCS Total Energy          =     -76.0662439531701295 [Eh]
	-----------------------------------------------------------

  -Total Gradient:
     Atom            X                  Y                   Z
    ------   -----------------  -----------------  -----------------
       1        0.049151133749    -0.308018046565    -0.000000000000
       2       -0.028182540213     0.327214559097     0.000000000000
       3       -0.020968593537    -0.019196512532     0.000000000000

*** Psi4 exiting successfully. Buy a developer a beer!
