                               Psi4 1.2a1.dev429

  ==> Input File <==

--------------------------------------------------------------------------
# density-fitted hartree fock energies and gradients with 6-31g
molecule h2o {
0 1
O 0.0000000000 0.0000000000 0.0000000000
H 0.0000000000 0.0000000000 1.3000000000
H 0.0000000000 1.4772116295 -0.2604722665
}

set basis 6-31g

gradient('mp2')
--------------------------------------------------------------------------

    Molecular point group: cs
  Charge       = 0
  Multiplicity = 1
  Basis Set: 6-31G
    Blend: 6-31G
  Basis Set: (6-31G AUX)
    Blend: CC-PVDZ-JKFIT

    Orbital Energies (a.u.)
    -----------------------

    Doubly Occupied:

       1Ap   -20.637675     2Ap    -1.232441     3Ap    -0.541541
       1App   -0.501382     4Ap    -0.489304

  @DF-RHF Final Energy:   -75.81511565183516

   => Energetics <=

    Nuclear Repulsion Energy =              6.3250229889461105
    One-Electron Energy =                -117.4755916519495997
    Two-Electron Energy =                  35.3354530111683260
    Total Energy =                        -75.8151156518351570
  Basis Set: (6-31G AUX)
    Blend: CC-PVDZ-RI
    Molecular point group: cs

    Geometry (in Angstrom), charge = 0, multiplicity = 1:

       Center              X                  Y                   Z               Mass
    ------------   -----------------  -----------------  -----------------  -----------------
           O          0.082660976156     0.058169307279     0.000000000000    15.994914619560
           H          0.082660976156    -1.241830692721     0.000000000000     1.007825032070
           H         -1.394550653344     0.318641573779     0.000000000000     1.007825032070

  Basis Set: 6-31G
    Blend: 6-31G
  Basis Set: (6-31G AUX)
    Blend: CC-PVDZ-JKFIT
  Basis Set: (6-31G AUX)
    Blend: CC-PVDZ-JKFIT
	 Reference Energy          =     -75.8151156518351570 [Eh]
	 Singles Energy            =      -0.0000000000000000 [Eh]
	 Same-Spin Energy          =      -0.0387647754182292 [Eh]
	 Opposite-Spin Energy      =      -0.1353480387792158 [Eh]
	 Correlation Energy        =      -0.1741128141974450 [Eh]
	 Total Energy              =     -75.9892284660325998 [Eh]

	 ================> DF-SCS-MP2 Energies <==================
	-----------------------------------------------------------
	 SCS Same-Spin Scale       =       0.3333333333333333 [-]
	 SCS Opposite-Spin Scale   =       1.2000000000000000 [-]
	 SCS Same-Spin Energy      =      -0.0129215918060764 [Eh]
	 SCS Opposite-Spin Energy  =      -0.1624176465350590 [Eh]
	 SCS Correlation Energy    =      -0.1753392383411354 [Eh]
	 SCS Total Energy          =     -75.9904548901762951 [Eh]
	-----------------------------------------------------------

  -Total Gradient:
     Atom            X                  Y                   Z
    ------   -----------------  -----------------  -----------------
       1        0.084697390385     0.071718342299    -0.000000000000
       2        0.008332391829    -0.095454808365    -0.000000000000
       3       -0.093029782214     0.023736466065     0.000000000000

*** Psi4 exiting successfully. Buy a developer a beer!
