                               Psi4 1.2a1.dev429

  ==> Input File <==

--------------------------------------------------------------------------
# density-fitted hartree fock energies and gradients with 6-31g
molecule h20 {
0 1
O 0.0000000000 0.0000000000 0.0000000000
H 0.0000000000 0.0000000000 0.7000000000
H 0.0000000000 0.0000000000 -1.0000000000
}

set basis 6-31g

gradient('hf')
--------------------------------------------------------------------------

    Molecular point group: c2v
  Charge       = 0
  Multiplicity = 1
  Basis Set: 6-31G
    Blend: 6-31G
  Basis Set: (6-31G AUX)
    Blend: CC-PVDZ-JKFIT

    Orbital Energies (a.u.)
    -----------------------

    Doubly Occupied:

       1A1   -20.495838     2A1    -1.383373     3A1    -0.844125
       1B2    -0.485509     1B1    -0.485509

  @DF-RHF Final Energy:   -75.82289274072936

   => Energetics <=

    Nuclear Repulsion Energy =             10.5924379063981515
    One-Electron Energy =                -125.4419549061932742
    Two-Electron Energy =                  39.0266242590657697
    Total Energy =                        -75.8228927407293583
    Molecular point group: c2v

    Geometry (in Angstrom), charge = 0, multiplicity = 1:

       Center              X                  Y                   Z               Mass
    ------------   -----------------  -----------------  -----------------  -----------------
           O          0.000000000000     0.000000000000     0.016787230991    15.994914619560
           H          0.000000000000     0.000000000000     0.716787230991     1.007825032070
           H          0.000000000000     0.000000000000    -0.983212769009     1.007825032070

  Basis Set: 6-31G
    Blend: 6-31G
  Basis Set: (6-31G AUX)
    Blend: CC-PVDZ-JKFIT

  -Total Gradient:
     Atom            X                  Y                   Z
    ------   -----------------  -----------------  -----------------
       1        0.000000000000    -0.000000000000     0.802531234183
       2       -0.000000000000     0.000000000000    -0.711606155012
       3        0.000000000000     0.000000000000    -0.090925079170

*** Psi4 exiting successfully. Buy a developer a beer!
