                               Psi4 1.2a1.dev429

  ==> Input File <==

--------------------------------------------------------------------------
# density-fitted hartree fock energies and gradients with 6-31g
molecule h20 {
0 1
O 0.0000000000 0.0000000000 0.0000000000
H 0.0000000000 0.0000000000 1.0000000000
H 0.0000000000 0.1215537244 -0.6893654271
}

set basis 6-31g

gradient('hf')
--------------------------------------------------------------------------

    Molecular point group: cs
  Charge       = 0
  Multiplicity = 1
  Basis Set: 6-31G
    Blend: 6-31G
  Basis Set: (6-31G AUX)
    Blend: CC-PVDZ-JKFIT

    Orbital Energies (a.u.)
    -----------------------

    Doubly Occupied:

       1Ap   -20.497238     2Ap    -1.385294     3Ap    -0.843116
       4Ap    -0.487389     1App   -0.486332

  @DF-RHF Final Energy:   -75.82464580911233

   => Energetics <=

    Nuclear Repulsion Energy =             10.5935897134060610
    One-Electron Energy =                -125.4377351710088817
    Two-Electron Energy =                  39.0194996484905090
    Total Energy =                        -75.8246458091123117
    Molecular point group: cs

    Geometry (in Angstrom), charge = 0, multiplicity = 1:

       Center              X                  Y                   Z               Mass
    ------------   -----------------  -----------------  -----------------  -----------------
           O          0.006801834831     0.017382314430     0.000000000000    15.994914619560
           H          0.006801834831    -0.982617685570     0.000000000000     1.007825032070
           H         -0.114751889569     0.706747741530     0.000000000000     1.007825032070

  Basis Set: 6-31G
    Blend: 6-31G
  Basis Set: (6-31G AUX)
    Blend: CC-PVDZ-JKFIT

  -Total Gradient:
     Atom            X                  Y                   Z
    ------   -----------------  -----------------  -----------------
       1       -0.148881816217     0.788833639239     0.000000000000
       2        0.010454387527    -0.089778995707     0.000000000000
       3        0.138427428690    -0.699054643533     0.000000000000

*** Psi4 exiting successfully. Buy a developer a beer!
