                               Psi4 1.2a1.dev429

  ==> Input File <==

--------------------------------------------------------------------------
# density-fitted hartree fock energies and gradients with 6-31g
molecule h2o {
0 1
O 0.0000000000 0.0000000000 0.0000000000
H 0.0000000000 0.0000000000 1.3000000000
H 0.0000000000 0.6894399988 -0.5785088487
}

set basis 6-31g

gradient('mp2')
--------------------------------------------------------------------------

    Molecular point group: cs
  Charge       = 0
  Multiplicity = 1
  Basis Set: 6-31G
    Blend: 6-31G
  Basis Set: (6-31G AUX)
    Blend: CC-PVDZ-JKFIT

    Orbital Energies (a.u.)
    -----------------------

    Doubly Occupied:

       1Ap   -20.554646     2Ap    -1.297045     3Ap    -0.669519
       4Ap    -0.487149     1App   -0.479194

  @DF-RHF Final Energy:   -75.90381813734570

   => Energetics <=

    Nuclear Repulsion Energy =              8.2247248866135507
    One-Electron Energy =                -121.2819796837892170
    Two-Electron Energy =                  37.1534366598299641
    Total Energy =                        -75.9038181373456950
  Basis Set: (6-31G AUX)
    Blend: CC-PVDZ-RI
    Molecular point group: cs

    Geometry (in Angstrom), charge = 0, multiplicity = 1:

       Center              X                  Y                   Z               Mass
    ------------   -----------------  -----------------  -----------------  -----------------
           O          0.038579295047     0.040372795382     0.000000000000    15.994914619560
           H          0.038579295047    -1.259627204618     0.000000000000     1.007825032070
           H         -0.650860703753     0.618881644082     0.000000000000     1.007825032070

  Basis Set: 6-31G
    Blend: 6-31G
  Basis Set: (6-31G AUX)
    Blend: CC-PVDZ-JKFIT
  Basis Set: (6-31G AUX)
    Blend: CC-PVDZ-JKFIT
	 Reference Energy          =     -75.9038181373456950 [Eh]
	 Singles Energy            =      -0.0000000000000000 [Eh]
	 Same-Spin Energy          =      -0.0323502505730789 [Eh]
	 Opposite-Spin Energy      =      -0.1065410275600689 [Eh]
	 Correlation Energy        =      -0.1388912781331478 [Eh]
	 Total Energy              =     -76.0427094154788392 [Eh]

	 ================> DF-SCS-MP2 Energies <==================
	-----------------------------------------------------------
	 SCS Same-Spin Scale       =       0.3333333333333333 [-]
	 SCS Opposite-Spin Scale   =       1.2000000000000000 [-]
	 SCS Same-Spin Energy      =      -0.0107834168576930 [Eh]
	 SCS Opposite-Spin Energy  =      -0.1278492330720827 [Eh]
	 SCS Correlation Energy    =      -0.1386326499297756 [Eh]
	 SCS Total Energy          =     -76.0424507872754702 [Eh]
	-----------------------------------------------------------

  -Total Gradient:
     Atom            X                  Y                   Z
    ------   -----------------  -----------------  -----------------
       1       -0.121126374246     0.152763824800     0.000000000000
       2        0.025951487207    -0.121836432887    -0.000000000000
       3        0.095174887039    -0.030927391913    -0.000000000000

*** Psi4 exiting successfully. Buy a developer a beer!
