                               Psi4 1.2a1.dev429

  ==> Input File <==

--------------------------------------------------------------------------
# density-fitted hartree fock energies and gradients with 6-31g
molecule h2o {
0 1
O 0.0000000000 0.0000000000 0.0000000000
H 0.0000000000 0.0000000000 0.9000000000
H 0.0000000000 0.8000000000 0.0000000000
}

set basis 6-31g

gradient('mp2')
--------------------------------------------------------------------------

    Molecular point group: cs
  Charge       = 0
  Multiplicity = 1
  Basis Set: 6-31G
    Blend: 6-31G
  Basis Set: (6-31G AUX)
    Blend: CC-PVDZ-JKFIT

    Orbital Energies (a.u.)
    -----------------------

    Doubly Occupied:

       1Ap   -20.547200     2Ap    -1.448160     3Ap    -0.739094
       4Ap    -0.604845     1App   -0.514460

  @DF-RHF Final Energy:   -75.92767640342002

   => Energetics <=

    Nuclear Repulsion Energy =             10.4350272477390806
    One-Electron Energy =                -125.0178887495255822
    Two-Electron Energy =                  38.6551850983664735
    Total Energy =                        -75.9276764034200227
  Basis Set: (6-31G AUX)
    Blend: CC-PVDZ-RI
    Molecular point group: cs

    Geometry (in Angstrom), charge = 0, multiplicity = 1:

       Center              X                  Y                   Z               Mass
    ------------   -----------------  -----------------  -----------------  -----------------
           O          0.044765949309     0.050361692973     0.000000000000    15.994914619560
           H          0.044765949309    -0.849638307027     0.000000000000     1.007825032070
           H         -0.755234050691     0.050361692973     0.000000000000     1.007825032070

  Basis Set: 6-31G
    Blend: 6-31G
  Basis Set: (6-31G AUX)
    Blend: CC-PVDZ-JKFIT
  Basis Set: (6-31G AUX)
    Blend: CC-PVDZ-JKFIT
	 Reference Energy          =     -75.9276764034200227 [Eh]
	 Singles Energy            =      -0.0000000000000000 [Eh]
	 Same-Spin Energy          =      -0.0276755454091735 [Eh]
	 Opposite-Spin Energy      =      -0.0919513035142487 [Eh]
	 Correlation Energy        =      -0.1196268489234222 [Eh]
	 Total Energy              =     -76.0473032523434398 [Eh]

	 ================> DF-SCS-MP2 Energies <==================
	-----------------------------------------------------------
	 SCS Same-Spin Scale       =       0.3333333333333333 [-]
	 SCS Opposite-Spin Scale   =       1.2000000000000000 [-]
	 SCS Same-Spin Energy      =      -0.0092251818030578 [Eh]
	 SCS Opposite-Spin Energy  =      -0.1103415642170985 [Eh]
	 SCS Correlation Energy    =      -0.1195667460201563 [Eh]
	 SCS Total Energy          =     -76.0472431494401775 [Eh]
	-----------------------------------------------------------

  -Total Gradient:
     Atom            X                  Y                   Z
    ------   -----------------  -----------------  -----------------
       1       -0.279538007905    -0.047547947356    -0.000000000000
       2       -0.054542663806     0.108908442414     0.000000000000
       3        0.334080671710    -0.061360495059     0.000000000000

*** Psi4 exiting successfully. Buy a developer a beer!
