                               Psi4 1.2a1.dev429

  ==> Input File <==

--------------------------------------------------------------------------
# density-fitted hartree fock energies and gradients with 6-31g
molecule h20 {
0 1
O 0.0000000000 0.0000000000 0.0000000000
H 0.0000000000 0.0000000000 1.3000000000
H 0.0000000000 0.1910129954 -1.0832885283
}

set basis 6-31g

gradient('hf')
--------------------------------------------------------------------------

    Molecular point group: cs
  Charge       = 0
  Multiplicity = 1
  Basis Set: 6-31G
    Blend: 6-31G
  Basis Set: (6-31G AUX)
    Blend: CC-PVDZ-JKFIT

    Orbital Energies (a.u.)
    -----------------------

    Doubly Occupied:

       1Ap   -20.509851     2Ap    -1.194859     3Ap    -0.609764
       1App   -0.429630     4Ap    -0.428364

  @DF-RHF Final Energy:   -75.84271084190398

   => Energetics <=

    Nuclear Repulsion Energy =              7.3263635061585450
    One-Electron Energy =                -119.9932124935960047
    Two-Electron Energy =                  36.8241381455334746
    Total Energy =                        -75.8427108419039939
    Molecular point group: cs

    Geometry (in Angstrom), charge = 0, multiplicity = 1:

       Center              X                  Y                   Z               Mass
    ------------   -----------------  -----------------  -----------------  -----------------
           O          0.010688597587     0.012126618446     0.000000000000    15.994914619560
           H          0.010688597587    -1.287873381554     0.000000000000     1.007825032070
           H         -0.180324397813     1.095415146746     0.000000000000     1.007825032070

  Basis Set: 6-31G
    Blend: 6-31G
  Basis Set: (6-31G AUX)
    Blend: CC-PVDZ-JKFIT

  -Total Gradient:
     Atom            X                  Y                   Z
    ------   -----------------  -----------------  -----------------
       1       -0.014041302386     0.040210764611     0.000000000000
       2        0.015418855925    -0.152961204358     0.000000000000
       3       -0.001377553539     0.112750439747     0.000000000000

*** Psi4 exiting successfully. Buy a developer a beer!
