                               Psi4 1.2a1.dev429

  ==> Input File <==

--------------------------------------------------------------------------
# density-fitted hartree fock energies and gradients with 6-31g
molecule h2o {
0 1
O 0.0000000000 0.0000000000 0.0000000000
H 0.0000000000 0.0000000000 1.1000000000
H 0.0000000000 0.8457233587 -0.3078181290
}

set basis 6-31g

gradient('mp2')
--------------------------------------------------------------------------

    Molecular point group: cs
  Charge       = 0
  Multiplicity = 1
  Basis Set: 6-31G
    Blend: 6-31G
  Basis Set: (6-31G AUX)
    Blend: CC-PVDZ-JKFIT

    Orbital Energies (a.u.)
    -----------------------

    Doubly Occupied:

       1Ap   -20.563231     2Ap    -1.338647     3Ap    -0.697531
       4Ap    -0.541428     1App   -0.496980

  @DF-RHF Final Energy:   -75.96502963164463

   => Energetics <=

    Nuclear Repulsion Energy =              8.8745730443958433
    One-Electron Energy =                -122.4035719476205486
    Two-Electron Energy =                  37.5639692715800635
    Total Energy =                        -75.9650296316446401
  Basis Set: (6-31G AUX)
    Blend: CC-PVDZ-RI
    Molecular point group: cs

    Geometry (in Angstrom), charge = 0, multiplicity = 1:

       Center              X                  Y                   Z               Mass
    ------------   -----------------  -----------------  -----------------  -----------------
           O          0.047324511256     0.044328466851     0.000000000000    15.994914619560
           H          0.047324511256    -1.055671533149     0.000000000000     1.007825032070
           H         -0.798398847444     0.352146595851     0.000000000000     1.007825032070

  Basis Set: 6-31G
    Blend: 6-31G
  Basis Set: (6-31G AUX)
    Blend: CC-PVDZ-JKFIT
  Basis Set: (6-31G AUX)
    Blend: CC-PVDZ-JKFIT
	 Reference Energy          =     -75.9650296316446259 [Eh]
	 Singles Energy            =      -0.0000000000000000 [Eh]
	 Same-Spin Energy          =      -0.0308489719620603 [Eh]
	 Opposite-Spin Energy      =      -0.1010849475859700 [Eh]
	 Correlation Energy        =      -0.1319339195480303 [Eh]
	 Total Energy              =     -76.0969635511926583 [Eh]

	 ================> DF-SCS-MP2 Energies <==================
	-----------------------------------------------------------
	 SCS Same-Spin Scale       =       0.3333333333333333 [-]
	 SCS Opposite-Spin Scale   =       1.2000000000000000 [-]
	 SCS Same-Spin Energy      =      -0.0102829906540201 [Eh]
	 SCS Opposite-Spin Energy  =      -0.1213019371031640 [Eh]
	 SCS Correlation Energy    =      -0.1315849277571841 [Eh]
	 SCS Total Energy          =     -76.0966145594018144 [Eh]
	-----------------------------------------------------------

  -Total Gradient:
     Atom            X                  Y                   Z
    ------   -----------------  -----------------  -----------------
       1       -0.094826531748     0.109603777221     0.000000000000
       2        0.003413341121    -0.080771699474     0.000000000000
       3        0.091413190627    -0.028832077747    -0.000000000000

*** Psi4 exiting successfully. Buy a developer a beer!
