                               Psi4 1.2a1.dev429

  ==> Input File <==

--------------------------------------------------------------------------
# density-fitted hartree fock energies and gradients with 6-31g
molecule h2o {
0 1
O 0.0000000000 0.0000000000 0.0000000000
H 0.0000000000 0.0000000000 1.1000000000
H 0.0000000000 0.6000000000 -1.0392304845
}

set basis 6-31g

gradient('mp2')
--------------------------------------------------------------------------

    Molecular point group: cs
  Charge       = 0
  Multiplicity = 1
  Basis Set: 6-31G
    Blend: 6-31G
  Basis Set: (6-31G AUX)
    Blend: CC-PVDZ-JKFIT

    Orbital Energies (a.u.)
    -----------------------

    Doubly Occupied:

       1Ap   -20.538010     2Ap    -1.229983     3Ap    -0.640367
       4Ap    -0.455551     1App   -0.455154

  @DF-RHF Final Energy:   -75.89114825914679

   => Energetics <=

    Nuclear Repulsion Energy =              7.6145866986815083
    One-Electron Energy =                -120.3733408008175587
    Two-Electron Energy =                  36.8676058429892493
    Total Energy =                        -75.8911482591468030
  Basis Set: (6-31G AUX)
    Blend: CC-PVDZ-RI
    Molecular point group: cs

    Geometry (in Angstrom), charge = 0, multiplicity = 1:

       Center              X                  Y                   Z               Mass
    ------------   -----------------  -----------------  -----------------  -----------------
           O          0.033574461982     0.003400506313     0.000000000000    15.994914619560
           H          0.033574461982    -1.096599493687     0.000000000000     1.007825032070
           H         -0.566425538018     1.042630990813     0.000000000000     1.007825032070

  Basis Set: 6-31G
    Blend: 6-31G
  Basis Set: (6-31G AUX)
    Blend: CC-PVDZ-JKFIT
  Basis Set: (6-31G AUX)
    Blend: CC-PVDZ-JKFIT
	 Reference Energy          =     -75.8911482591467887 [Eh]
	 Singles Energy            =      -0.0000000000000000 [Eh]
	 Same-Spin Energy          =      -0.0334376654131026 [Eh]
	 Opposite-Spin Energy      =      -0.1071613464325196 [Eh]
	 Correlation Energy        =      -0.1405990118456221 [Eh]
	 Total Energy              =     -76.0317472709924118 [Eh]

	 ================> DF-SCS-MP2 Energies <==================
	-----------------------------------------------------------
	 SCS Same-Spin Scale       =       0.3333333333333333 [-]
	 SCS Opposite-Spin Scale   =       1.2000000000000000 [-]
	 SCS Same-Spin Energy      =      -0.0111458884710342 [Eh]
	 SCS Opposite-Spin Energy  =      -0.1285936157190235 [Eh]
	 SCS Correlation Energy    =      -0.1397395041900577 [Eh]
	 SCS Total Energy          =     -76.0308877633368496 [Eh]
	-----------------------------------------------------------

  -Total Gradient:
     Atom            X                  Y                   Z
    ------   -----------------  -----------------  -----------------
       1       -0.012904187392    -0.029808093736     0.000000000000
       2        0.039955588253    -0.090298218742    -0.000000000000
       3       -0.027051400861     0.120106312478     0.000000000000

*** Psi4 exiting successfully. Buy a developer a beer!
