                               Psi4 1.2a1.dev429

  ==> Input File <==

--------------------------------------------------------------------------
# density-fitted hartree fock energies and gradients with 6-31g
molecule h2o {
0 1
O 0.0000000000 0.0000000000 0.0000000000
H 0.0000000000 0.0000000000 1.0000000000
H 0.0000000000 0.5500000000 -0.9526279442
}

set basis 6-31g

gradient('mp2')
--------------------------------------------------------------------------

    Molecular point group: cs
  Charge       = 0
  Multiplicity = 1
  Basis Set: 6-31G
    Blend: 6-31G
  Basis Set: (6-31G AUX)
    Blend: CC-PVDZ-JKFIT

    Orbital Energies (a.u.)
    -----------------------

    Doubly Occupied:

       1Ap   -20.528087     2Ap    -1.266773     3Ap    -0.697675
       4Ap    -0.469331     1App   -0.463879

  @DF-RHF Final Energy:   -75.93269071334223

   => Energetics <=

    Nuclear Repulsion Energy =              8.3428363136892560
    One-Electron Energy =                -121.6995622479419552
    Two-Electron Energy =                  37.4240352209104543
    Total Energy =                        -75.9326907133422395
  Basis Set: (6-31G AUX)
    Blend: CC-PVDZ-RI
    Molecular point group: cs

    Geometry (in Angstrom), charge = 0, multiplicity = 1:

       Center              X                  Y                   Z               Mass
    ------------   -----------------  -----------------  -----------------  -----------------
           O          0.030776590150     0.002650818811     0.000000000000    15.994914619560
           H          0.030776590150    -0.997349181189     0.000000000000     1.007825032070
           H         -0.519223409850     0.955278763011     0.000000000000     1.007825032070

  Basis Set: 6-31G
    Blend: 6-31G
  Basis Set: (6-31G AUX)
    Blend: CC-PVDZ-JKFIT
  Basis Set: (6-31G AUX)
    Blend: CC-PVDZ-JKFIT
	 Reference Energy          =     -75.9326907133422253 [Eh]
	 Singles Energy            =      -0.0000000000000000 [Eh]
	 Same-Spin Energy          =      -0.0319803675054868 [Eh]
	 Opposite-Spin Energy      =      -0.1012923080687761 [Eh]
	 Correlation Energy        =      -0.1332726755742629 [Eh]
	 Total Energy              =     -76.0659633889164866 [Eh]

	 ================> DF-SCS-MP2 Energies <==================
	-----------------------------------------------------------
	 SCS Same-Spin Scale       =       0.3333333333333333 [-]
	 SCS Opposite-Spin Scale   =       1.2000000000000000 [-]
	 SCS Same-Spin Energy      =      -0.0106601225018289 [Eh]
	 SCS Opposite-Spin Energy  =      -0.1215507696825313 [Eh]
	 SCS Correlation Energy    =      -0.1322108921843602 [Eh]
	 SCS Total Energy          =     -76.0649016055265861 [Eh]
	-----------------------------------------------------------

  -Total Gradient:
     Atom            X                  Y                   Z
    ------   -----------------  -----------------  -----------------
       1       -0.015136342157    -0.062919882475     0.000000000000
       2        0.036835537121    -0.041637928143     0.000000000000
       3       -0.021699194965     0.104557810618    -0.000000000000

*** Psi4 exiting successfully. Buy a developer a beer!
