                               Psi4 1.2a1.dev429

  ==> Input File <==

--------------------------------------------------------------------------
# density-fitted hartree fock energies and gradients with 6-31g
molecule h2o {
0 1
O 0.0000000000 0.0000000000 0.0000000000
H 0.0000000000 0.0000000000 1.2000000000
H 0.0000000000 1.1817693036 -0.2083778132
}

set basis 6-31g

gradient('mp2')
--------------------------------------------------------------------------

    Molecular point group: c2v
  Charge       = 0
  Multiplicity = 1
  Basis Set: 6-31G
    Blend: 6-31G
  Basis Set: (6-31G AUX)
    Blend: CC-PVDZ-JKFIT

    Orbital Energies (a.u.)
    -----------------------

    Doubly Occupied:

       1A1   -20.609816     2A1    -1.266909     1B2    -0.592395
       3A1    -0.531654     1B1    -0.498506

  @DF-RHF Final Energy:   -75.91073542749020

   => Energetics <=

    Nuclear Repulsion Energy =              7.3435260251782113
    One-Electron Energy =                -119.5099627118941896
    Two-Electron Energy =                  36.2557012592258019
    Total Energy =                        -75.9107354274901809
  Basis Set: (6-31G AUX)
    Blend: CC-PVDZ-RI
    Molecular point group: c2v

    Geometry (in Angstrom), charge = 0, multiplicity = 1:

       Center              X                  Y                   Z               Mass
    ------------   -----------------  -----------------  -----------------  -----------------
           O          0.000000000000     0.000000000000    -0.086324992654    15.994914619560
           H          0.000000000000    -0.919253331738     0.685020138964     1.007825032070
           H         -0.000000000000     0.919253331738     0.685020138964     1.007825032070

  Basis Set: 6-31G
    Blend: 6-31G
  Basis Set: (6-31G AUX)
    Blend: CC-PVDZ-JKFIT
  Basis Set: (6-31G AUX)
    Blend: CC-PVDZ-JKFIT
	 Reference Energy          =     -75.9107354274901951 [Eh]
	 Singles Energy            =      -0.0000000000000000 [Eh]
	 Same-Spin Energy          =      -0.0350395927148145 [Eh]
	 Opposite-Spin Energy      =      -0.1174970630552435 [Eh]
	 Correlation Energy        =      -0.1525366557700580 [Eh]
	 Total Energy              =     -76.0632720832602587 [Eh]

	 ================> DF-SCS-MP2 Energies <==================
	-----------------------------------------------------------
	 SCS Same-Spin Scale       =       0.3333333333333333 [-]
	 SCS Opposite-Spin Scale   =       1.2000000000000000 [-]
	 SCS Same-Spin Energy      =      -0.0116798642382715 [Eh]
	 SCS Opposite-Spin Energy  =      -0.1409964756662922 [Eh]
	 SCS Correlation Energy    =      -0.1526763399045637 [Eh]
	 SCS Total Energy          =     -76.0634117673947543 [Eh]
	-----------------------------------------------------------

  -Total Gradient:
     Atom            X                  Y                   Z
    ------   -----------------  -----------------  -----------------
       1       -0.000000000000     0.000000000005    -0.115583075205
       2       -0.000000000000    -0.072124625313     0.057791537604
       3        0.000000000000     0.072124625308     0.057791537601

*** Psi4 exiting successfully. Buy a developer a beer!
