                               Psi4 1.2a1.dev429

  ==> Input File <==

--------------------------------------------------------------------------
# density-fitted hartree fock energies and gradients with 6-31g
molecule o2 {
0 3
O 0.0000000000 0.0000000000 0.0000000000
O 0.0000000000 0.0000000000 1.2242424242
}

set basis 6-31g
set reference rohf

gradient('scf')
--------------------------------------------------------------------------

    Molecular point group: d2h
  Charge       = 0
  Multiplicity = 3
  Basis Set: 6-31G
    Blend: 6-31G
  Basis Set: (6-31G AUX)
    Blend: CC-PVDZ-JKFIT

    Orbital Energies (a.u.)
    -----------------------

    Doubly Occupied:

       1Ag   -20.751482     1B1u  -20.750702     2Ag    -1.674098
       2B1u   -1.107295     3Ag    -0.718874     1B2u   -0.709119
       1B3u   -0.709119

    Singly Occupied:

       1B3g   -0.235853     1B2g   -0.235853

  @DF-ROHF Final Energy:  -149.52633069592150

   => Energetics <=

    Nuclear Repulsion Energy =             27.6639174401190466
    One-Electron Energy =                -260.4221198950625649
    Two-Electron Energy =                  83.2318717590220274
    Total Energy =                       -149.5263306959215015
    Molecular point group: d2h

    Geometry (in Angstrom), charge = 0, multiplicity = 3:

       Center              X                  Y                   Z               Mass
    ------------   -----------------  -----------------  -----------------  -----------------
           O          0.000000000000     0.000000000000    -0.612121212100    15.994914619560
           O          0.000000000000     0.000000000000     0.612121212100    15.994914619560

  Basis Set: 6-31G
    Blend: 6-31G
  Basis Set: (6-31G AUX)
    Blend: CC-PVDZ-JKFIT

  -Total Gradient:
     Atom            X                  Y                   Z
    ------   -----------------  -----------------  -----------------
       1        0.000000000000     0.000000000000    -0.057238798540
       2        0.000000000000    -0.000000000000     0.057238798540

*** Psi4 exiting successfully. Buy a developer a beer!
