                               Psi4 1.2a1.dev429

  ==> Input File <==

--------------------------------------------------------------------------
# density-fitted hartree fock energies and gradients with 6-31g
molecule h20 {
0 1
O 0.0000000000 0.0000000000 0.0000000000
O 0.0000000000 0.0000000000 1.2242424242
}

set basis 6-31g

gradient('hf')
--------------------------------------------------------------------------

    Molecular point group: d2h
  Charge       = 0
  Multiplicity = 1
  Basis Set: 6-31G
    Blend: 6-31G
  Basis Set: (6-31G AUX)
    Blend: CC-PVDZ-JKFIT

    Orbital Energies (a.u.)
    -----------------------

    Doubly Occupied:

       1Ag   -20.760578     1B1u  -20.759790     2Ag    -1.678914
       2B1u   -1.111275     1B3u   -0.777538     3Ag    -0.723038
       1B2u   -0.649830     1B2g   -0.493921

  @DF-RHF Final Energy:  -149.46009188862695

   => Energetics <=

    Nuclear Repulsion Energy =             27.6639174401190466
    One-Electron Energy =                -260.3382498928417590
    Two-Electron Energy =                  83.2142405640957605
    Total Energy =                       -149.4600918886269483
    Molecular point group: d2h

    Geometry (in Angstrom), charge = 0, multiplicity = 1:

       Center              X                  Y                   Z               Mass
    ------------   -----------------  -----------------  -----------------  -----------------
           O          0.000000000000     0.000000000000    -0.612121212100    15.994914619560
           O          0.000000000000     0.000000000000     0.612121212100    15.994914619560

  Basis Set: 6-31G
    Blend: 6-31G
  Basis Set: (6-31G AUX)
    Blend: CC-PVDZ-JKFIT

  -Total Gradient:
     Atom            X                  Y                   Z
    ------   -----------------  -----------------  -----------------
       1       -0.000000000000     0.000000000000    -0.049055465616
       2        0.000000000000    -0.000000000000     0.049055465616

*** Psi4 exiting successfully. Buy a developer a beer!
