                               Psi4 1.2a1.dev429

  ==> Input File <==

--------------------------------------------------------------------------
# density-fitted hartree fock energies and gradients with 6-31g
molecule h2o {
0 1
O 0.0000000000 0.0000000000 0.0000000000
H 0.0000000000 0.0000000000 1.0000000000
H 0.0000000000 0.5142300877 -0.6128355545
}

set basis 6-31g

gradient('mp2')
--------------------------------------------------------------------------

    Molecular point group: cs
  Charge       = 0
  Multiplicity = 1
  Basis Set: 6-31G
    Blend: 6-31G
  Basis Set: (6-31G AUX)
    Blend: CC-PVDZ-JKFIT

    Orbital Energies (a.u.)
    -----------------------

    Doubly Occupied:

       1Ap   -20.520601     2Ap    -1.361151     3Ap    -0.793236
       4Ap    -0.506396     1App   -0.488815

  @DF-RHF Final Energy:   -75.93451912739368

   => Energetics <=

    Nuclear Repulsion Energy =              9.8377890240432944
    One-Electron Energy =                -124.2042169305548214
    Two-Electron Energy =                  38.4319087791178617
    Total Energy =                        -75.9345191273936706
  Basis Set: (6-31G AUX)
    Blend: CC-PVDZ-RI
    Molecular point group: cs

    Geometry (in Angstrom), charge = 0, multiplicity = 1:

       Center              X                  Y                   Z               Mass
    ------------   -----------------  -----------------  -----------------  -----------------
           O          0.028774997549     0.021664729927     0.000000000000    15.994914619560
           H          0.028774997549    -0.978335270073     0.000000000000     1.007825032070
           H         -0.485455090151     0.634500284427     0.000000000000     1.007825032070

  Basis Set: 6-31G
    Blend: 6-31G
  Basis Set: (6-31G AUX)
    Blend: CC-PVDZ-JKFIT
  Basis Set: (6-31G AUX)
    Blend: CC-PVDZ-JKFIT
	 Reference Energy          =     -75.9345191273936848 [Eh]
	 Singles Energy            =      -0.0000000000000000 [Eh]
	 Same-Spin Energy          =      -0.0293794499715641 [Eh]
	 Opposite-Spin Energy      =      -0.0931225726026725 [Eh]
	 Correlation Energy        =      -0.1225020225742366 [Eh]
	 Total Energy              =     -76.0570211499679232 [Eh]

	 ================> DF-SCS-MP2 Energies <==================
	-----------------------------------------------------------
	 SCS Same-Spin Scale       =       0.3333333333333333 [-]
	 SCS Opposite-Spin Scale   =       1.2000000000000000 [-]
	 SCS Same-Spin Energy      =      -0.0097931499905214 [Eh]
	 SCS Opposite-Spin Energy  =      -0.1117470871232070 [Eh]
	 SCS Correlation Energy    =      -0.1215402371137284 [Eh]
	 SCS Total Energy          =     -76.0560593645074192 [Eh]
	-----------------------------------------------------------

  -Total Gradient:
     Atom            X                  Y                   Z
    ------   -----------------  -----------------  -----------------
       1       -0.245577703356     0.260462121699     0.000000000000
       2        0.026510167577    -0.050940722681     0.000000000000
       3        0.219067535778    -0.209521399018    -0.000000000000

*** Psi4 exiting successfully. Buy a developer a beer!
