                               Psi4 1.2a1.dev429

  ==> Input File <==

--------------------------------------------------------------------------
# density-fitted hartree fock energies and gradients with 6-31g
molecule h20 {
0 1
O 0.0000000000 0.0000000000 0.0000000000
H 0.0000000000 0.0000000000 0.9000000000
H 0.0000000000 0.0000000000 -1.1000000000
}

set basis 6-31g

gradient('hf')
--------------------------------------------------------------------------

    Molecular point group: c2v
  Charge       = 0
  Multiplicity = 1
  Basis Set: 6-31G
    Blend: 6-31G
  Basis Set: (6-31G AUX)
    Blend: CC-PVDZ-JKFIT

    Orbital Energies (a.u.)
    -----------------------

    Doubly Occupied:

       1A1   -20.502868     2A1    -1.277881     3A1    -0.733012
       1B2    -0.457067     1B1    -0.457067

  @DF-RHF Final Energy:   -75.91653821972659

   => Energetics <=

    Nuclear Repulsion Energy =              8.8169475310020697
    One-Electron Energy =                -122.6111813366554770
    Two-Electron Energy =                  37.8776955859268014
    Total Energy =                        -75.9165382197266041
    Molecular point group: c2v

    Geometry (in Angstrom), charge = 0, multiplicity = 1:

       Center              X                  Y                   Z               Mass
    ------------   -----------------  -----------------  -----------------  -----------------
           O          0.000000000000     0.000000000000     0.011191487327    15.994914619560
           H          0.000000000000     0.000000000000     0.911191487327     1.007825032070
           H          0.000000000000     0.000000000000    -1.088808512673     1.007825032070

  Basis Set: 6-31G
    Blend: 6-31G
  Basis Set: (6-31G AUX)
    Blend: CC-PVDZ-JKFIT

  -Total Gradient:
     Atom            X                  Y                   Z
    ------   -----------------  -----------------  -----------------
       1       -0.000000000000     0.000000000000     0.181360617777
       2        0.000000000000     0.000000000000    -0.046001162260
       3        0.000000000000     0.000000000000    -0.135359455517

*** Psi4 exiting successfully. Buy a developer a beer!
