                               Psi4 1.2a1.dev429

  ==> Input File <==

--------------------------------------------------------------------------
# density-fitted hartree fock energies and gradients with 6-31g
molecule h2o {
0 1
O 0.0000000000 0.0000000000 0.0000000000
H 0.0000000000 0.0000000000 0.8000000000
H 0.0000000000 1.5000000000 0.0000000000
}

set basis 6-31g

gradient('mp2')
--------------------------------------------------------------------------

    Molecular point group: cs
  Charge       = 0
  Multiplicity = 1
  Basis Set: 6-31G
    Blend: 6-31G
  Basis Set: (6-31G AUX)
    Blend: CC-PVDZ-JKFIT

    Orbital Energies (a.u.)
    -----------------------

    Doubly Occupied:

       1Ap   -20.594911     2Ap    -1.370865     3Ap    -0.666504
       1App   -0.511854     4Ap    -0.505908

  @DF-RHF Final Energy:   -75.83204866480762

   => Energetics <=

    Nuclear Repulsion Energy =              8.4253312426486282
    One-Electron Energy =                -121.2146754391633721
    Two-Electron Energy =                  36.9572955317071390
    Total Energy =                        -75.8320486648076155
  Basis Set: (6-31G AUX)
    Blend: CC-PVDZ-RI
    Molecular point group: cs

    Geometry (in Angstrom), charge = 0, multiplicity = 1:

       Center              X                  Y                   Z               Mass
    ------------   -----------------  -----------------  -----------------  -----------------
           O          0.083936154954     0.044765949309     0.000000000000    15.994914619560
           H          0.083936154954    -0.755234050691     0.000000000000     1.007825032070
           H         -1.416063845046     0.044765949309     0.000000000000     1.007825032070

  Basis Set: 6-31G
    Blend: 6-31G
  Basis Set: (6-31G AUX)
    Blend: CC-PVDZ-JKFIT
  Basis Set: (6-31G AUX)
    Blend: CC-PVDZ-JKFIT
	 Reference Energy          =     -75.8320486648076155 [Eh]
	 Singles Energy            =      -0.0000000000000000 [Eh]
	 Same-Spin Energy          =      -0.0320106695111915 [Eh]
	 Opposite-Spin Energy      =      -0.1135010100944574 [Eh]
	 Correlation Energy        =      -0.1455116796056488 [Eh]
	 Total Energy              =     -75.9775603444132628 [Eh]

	 ================> DF-SCS-MP2 Energies <==================
	-----------------------------------------------------------
	 SCS Same-Spin Scale       =       0.3333333333333333 [-]
	 SCS Opposite-Spin Scale   =       1.2000000000000000 [-]
	 SCS Same-Spin Energy      =      -0.0106702231703972 [Eh]
	 SCS Opposite-Spin Energy  =      -0.1362012121133488 [Eh]
	 SCS Correlation Energy    =      -0.1468714352837460 [Eh]
	 SCS Total Energy          =     -75.9789201000913579 [Eh]
	-----------------------------------------------------------

  -Total Gradient:
     Atom            X                  Y                   Z
    ------   -----------------  -----------------  -----------------
       1        0.114349198655    -0.332024753217    -0.000000000000
       2       -0.015487070800     0.340284527392     0.000000000000
       3       -0.098862127855    -0.008259774175     0.000000000000

*** Psi4 exiting successfully. Buy a developer a beer!
