                               Psi4 1.2a1.dev429

  ==> Input File <==

--------------------------------------------------------------------------
# density-fitted hartree fock energies and gradients with 6-31g
molecule h2o {
0 1
O 0.0000000000 0.0000000000 0.0000000000
H 0.0000000000 0.0000000000 1.1000000000
H 0.0000000000 0.6427876097 -0.7660444431
}

set basis 6-31g

gradient('mp2')
--------------------------------------------------------------------------

    Molecular point group: cs
  Charge       = 0
  Multiplicity = 1
  Basis Set: 6-31G
    Blend: 6-31G
  Basis Set: (6-31G AUX)
    Blend: CC-PVDZ-JKFIT

    Orbital Energies (a.u.)
    -----------------------

    Doubly Occupied:

       1Ap   -20.540463     2Ap    -1.277678     3Ap    -0.694458
       4Ap    -0.483598     1App   -0.472229

  @DF-RHF Final Energy:   -75.94390877918117

   => Energetics <=

    Nuclear Repulsion Energy =              8.3501001667331103
    One-Electron Energy =                -121.6511649516628495
    Two-Electron Energy =                  37.3571560057485570
    Total Energy =                        -75.9439087791811858
  Basis Set: (6-31G AUX)
    Blend: CC-PVDZ-RI
    Molecular point group: cs

    Geometry (in Angstrom), charge = 0, multiplicity = 1:

       Center              X                  Y                   Z               Mass
    ------------   -----------------  -----------------  -----------------  -----------------
           O          0.035968746940     0.018687296915     0.000000000000    15.994914619560
           H          0.035968746940    -1.081312703085     0.000000000000     1.007825032070
           H         -0.606818862760     0.784731740015     0.000000000000     1.007825032070

  Basis Set: 6-31G
    Blend: 6-31G
  Basis Set: (6-31G AUX)
    Blend: CC-PVDZ-JKFIT
  Basis Set: (6-31G AUX)
    Blend: CC-PVDZ-JKFIT
	 Reference Energy          =     -75.9439087791811716 [Eh]
	 Singles Energy            =      -0.0000000000000000 [Eh]
	 Same-Spin Energy          =      -0.0320231506303769 [Eh]
	 Opposite-Spin Energy      =      -0.1023254950174326 [Eh]
	 Correlation Energy        =      -0.1343486456478096 [Eh]
	 Total Energy              =     -76.0782574248289762 [Eh]

	 ================> DF-SCS-MP2 Energies <==================
	-----------------------------------------------------------
	 SCS Same-Spin Scale       =       0.3333333333333333 [-]
	 SCS Opposite-Spin Scale   =       1.2000000000000000 [-]
	 SCS Same-Spin Energy      =      -0.0106743835434590 [Eh]
	 SCS Opposite-Spin Energy  =      -0.1227905940209191 [Eh]
	 SCS Correlation Energy    =      -0.1334649775643781 [Eh]
	 SCS Total Energy          =     -76.0773737567455441 [Eh]
	-----------------------------------------------------------

  -Total Gradient:
     Atom            X                  Y                   Z
    ------   -----------------  -----------------  -----------------
       1       -0.038355265383     0.044236156231     0.000000000000
       2        0.033348838509    -0.095339470813    -0.000000000000
       3        0.005006426874     0.051103314581    -0.000000000000

*** Psi4 exiting successfully. Buy a developer a beer!
