                               Psi4 1.2a1.dev429

  ==> Input File <==

--------------------------------------------------------------------------
# density-fitted hartree fock energies and gradients with 6-31g
molecule h2o {
0 1
O 0.0000000000 0.0000000000 0.0000000000
H 0.0000000000 0.0000000000 1.0000000000
H 0.0000000000 1.1276311449 -0.4104241720
}

set basis 6-31g

gradient('mp2')
--------------------------------------------------------------------------

    Molecular point group: cs
  Charge       = 0
  Multiplicity = 1
  Basis Set: 6-31G
    Blend: 6-31G
  Basis Set: (6-31G AUX)
    Blend: CC-PVDZ-JKFIT

    Orbital Energies (a.u.)
    -----------------------

    Doubly Occupied:

       1Ap   -20.581595     2Ap    -1.295541     3Ap    -0.648828
       4Ap    -0.525919     1App   -0.493375

  @DF-RHF Final Energy:   -75.94441053150175

   => Energetics <=

    Nuclear Repulsion Energy =              8.0543117482227551
    One-Electron Energy =                -120.9069289505381732
    Two-Electron Energy =                  36.9082066708136765
    Total Energy =                        -75.9444105315017453
  Basis Set: (6-31G AUX)
    Blend: CC-PVDZ-RI
    Molecular point group: cs

    Geometry (in Angstrom), charge = 0, multiplicity = 1:

       Center              X                  Y                   Z               Mass
    ------------   -----------------  -----------------  -----------------  -----------------
           O          0.063099348340     0.032991152038     0.000000000000    15.994914619560
           H          0.063099348340    -0.967008847962     0.000000000000     1.007825032070
           H         -1.064531796560     0.443415324038     0.000000000000     1.007825032070

  Basis Set: 6-31G
    Blend: 6-31G
  Basis Set: (6-31G AUX)
    Blend: CC-PVDZ-JKFIT
  Basis Set: (6-31G AUX)
    Blend: CC-PVDZ-JKFIT
	 Reference Energy          =     -75.9444105315017453 [Eh]
	 Singles Energy            =      -0.0000000000000000 [Eh]
	 Same-Spin Energy          =      -0.0327481592388612 [Eh]
	 Opposite-Spin Energy      =      -0.1083575881955400 [Eh]
	 Correlation Energy        =      -0.1411057474344013 [Eh]
	 Total Energy              =     -76.0855162789361401 [Eh]

	 ================> DF-SCS-MP2 Energies <==================
	-----------------------------------------------------------
	 SCS Same-Spin Scale       =       0.3333333333333333 [-]
	 SCS Opposite-Spin Scale   =       1.2000000000000000 [-]
	 SCS Same-Spin Energy      =      -0.0109160530796204 [Eh]
	 SCS Opposite-Spin Energy  =      -0.1300291058346480 [Eh]
	 SCS Correlation Energy    =      -0.1409451589142684 [Eh]
	 SCS Total Energy          =     -76.0853556904160087 [Eh]
	-----------------------------------------------------------

  -Total Gradient:
     Atom            X                  Y                   Z
    ------   -----------------  -----------------  -----------------
       1        0.082375208038    -0.027236249456     0.000000000000
       2        0.010963503809    -0.016458859256    -0.000000000000
       3       -0.093338711846     0.043695108712    -0.000000000000

*** Psi4 exiting successfully. Buy a developer a beer!
