                               Psi4 1.2a1.dev429

  ==> Input File <==

--------------------------------------------------------------------------
# density-fitted hartree fock energies and gradients with 6-31g
molecule h20 {
0 1
O 0.0000000000 0.0000000000 0.0000000000
H 0.0000000000 0.0000000000 1.2000000000
H 0.0000000000 0.4499513268 -0.5362311102
}

set basis 6-31g

gradient('hf')
--------------------------------------------------------------------------

    Molecular point group: cs
  Charge       = 0
  Multiplicity = 1
  Basis Set: 6-31G
    Blend: 6-31G
  Basis Set: (6-31G AUX)
    Blend: CC-PVDZ-JKFIT

    Orbital Energies (a.u.)
    -----------------------

    Doubly Occupied:

       1Ap   -20.520325     2Ap    -1.386268     3Ap    -0.752558
       4Ap    -0.494176     1App   -0.483879

  @DF-RHF Final Energy:   -75.79761187707562

   => Energetics <=

    Nuclear Repulsion Energy =              9.8706260629919473
    One-Electron Energy =                -124.0620656177965628
    Two-Electron Energy =                  38.3938276777290000
    Total Energy =                        -75.7976118770756102
    Molecular point group: cs

    Geometry (in Angstrom), charge = 0, multiplicity = 1:

       Center              X                  Y                   Z               Mass
    ------------   -----------------  -----------------  -----------------  -----------------
           O          0.025178122859     0.037142805592     0.000000000000    15.994914619560
           H          0.025178122859    -1.162857194408     0.000000000000     1.007825032070
           H         -0.424773203941     0.573373915792     0.000000000000     1.007825032070

  Basis Set: 6-31G
    Blend: 6-31G
  Basis Set: (6-31G AUX)
    Blend: CC-PVDZ-JKFIT

  -Total Gradient:
     Atom            X                  Y                   Z
    ------   -----------------  -----------------  -----------------
       1       -0.529272622901     0.684006875387     0.000000000000
       2        0.025342344806    -0.151033054730     0.000000000000
       3        0.503930278095    -0.532973820657     0.000000000000

*** Psi4 exiting successfully. Buy a developer a beer!
