                               Psi4 1.2a1.dev429

  ==> Input File <==

--------------------------------------------------------------------------
# density-fitted hartree fock energies and gradients with 6-31g
molecule h20 {
0 1
O 0.0000000000 0.0000000000 0.0000000000
O 0.0000000000 0.0000000000 1.2949494949
}

set basis 6-31g

gradient('hf')
--------------------------------------------------------------------------

    Molecular point group: d2h
  Charge       = 0
  Multiplicity = 1
  Basis Set: 6-31G
    Blend: 6-31G
  Basis Set: (6-31G AUX)
    Blend: CC-PVDZ-JKFIT

    Orbital Energies (a.u.)
    -----------------------

    Doubly Occupied:

       1Ag   -20.772015     1B1u  -20.771399     2Ag    -1.616769
       2B1u   -1.136006     1B2u   -0.754726     3Ag    -0.702455
       1B3u   -0.620390     1B3g   -0.516610

  @DF-RHF Final Energy:  -149.44789800439364

   => Energetics <=

    Nuclear Repulsion Energy =             26.1534071275693627
    One-Electron Energy =                -257.4218679210503069
    Two-Electron Energy =                  81.8205627890873188
    Total Energy =                       -149.4478980043936360
    Molecular point group: d2h

    Geometry (in Angstrom), charge = 0, multiplicity = 1:

       Center              X                  Y                   Z               Mass
    ------------   -----------------  -----------------  -----------------  -----------------
           O          0.000000000000     0.000000000000    -0.647474747450    15.994914619560
           O          0.000000000000     0.000000000000     0.647474747450    15.994914619560

  Basis Set: 6-31G
    Blend: 6-31G
  Basis Set: (6-31G AUX)
    Blend: CC-PVDZ-JKFIT

  -Total Gradient:
     Atom            X                  Y                   Z
    ------   -----------------  -----------------  -----------------
       1        0.000000000000     0.000000000000    -0.126627188282
       2        0.000000000000    -0.000000000000     0.126627188282

*** Psi4 exiting successfully. Buy a developer a beer!
