                               Psi4 1.2a1.dev429

  ==> Input File <==

--------------------------------------------------------------------------
# density-fitted hartree fock energies and gradients with 6-31g
molecule h20 {
0 1
O 0.0000000000 0.0000000000 0.0000000000
H 0.0000000000 0.0000000000 1.0000000000
H 0.0000000000 0.4788282007 -1.3155696691
}

set basis 6-31g

gradient('hf')
--------------------------------------------------------------------------

    Molecular point group: cs
  Charge       = 0
  Multiplicity = 1
  Basis Set: 6-31G
    Blend: 6-31G
  Basis Set: (6-31G AUX)
    Blend: CC-PVDZ-JKFIT

    Orbital Energies (a.u.)
    -----------------------

    Doubly Occupied:

       1Ap   -20.518856     2Ap    -1.220550     3Ap    -0.617107
       1App   -0.439710     4Ap    -0.433687

  @DF-RHF Final Energy:   -75.83909438240040

   => Energetics <=

    Nuclear Repulsion Energy =              7.4810827381183813
    One-Electron Energy =                -120.1805337342238431
    Two-Electron Energy =                  36.8603566137050649
    Total Energy =                        -75.8390943824004040
    Molecular point group: cs

    Geometry (in Angstrom), charge = 0, multiplicity = 1:

       Center              X                  Y                   Z               Mass
    ------------   -----------------  -----------------  -----------------  -----------------
           O          0.026793998700    -0.017658469763     0.000000000000    15.994914619560
           H          0.026793998700    -1.017658469763     0.000000000000     1.007825032070
           H         -0.452034202000     1.297911199337     0.000000000000     1.007825032070

  Basis Set: 6-31G
    Blend: 6-31G
  Basis Set: (6-31G AUX)
    Blend: CC-PVDZ-JKFIT

  -Total Gradient:
     Atom            X                  Y                   Z
    ------   -----------------  -----------------  -----------------
       1       -0.008485632059    -0.100559930949     0.000000000000
       2        0.035712926211    -0.048830454913     0.000000000000
       3       -0.027227294152     0.149390385862     0.000000000000

*** Psi4 exiting successfully. Buy a developer a beer!
