                               Psi4 1.2a1.dev429

  ==> Input File <==

--------------------------------------------------------------------------
# density-fitted hartree fock energies and gradients with 6-31g
molecule h2o {
0 1
O 0.0000000000 0.0000000000 0.0000000000
H 0.0000000000 0.0000000000 0.9000000000
H 0.0000000000 0.4000000000 -0.6928203230
}

set basis 6-31g

gradient('mp2')
--------------------------------------------------------------------------

    Molecular point group: cs
  Charge       = 0
  Multiplicity = 1
  Basis Set: 6-31G
    Blend: 6-31G
  Basis Set: (6-31G AUX)
    Blend: CC-PVDZ-JKFIT

    Orbital Energies (a.u.)
    -----------------------

    Doubly Occupied:

       1Ap   -20.509015     2Ap    -1.373243     3Ap    -0.842706
       4Ap    -0.503105     1App   -0.492131

  @DF-RHF Final Energy:   -75.93081810879586

   => Energetics <=

    Nuclear Repulsion Energy =             10.3177909786698603
    One-Electron Energy =                -125.0568207409003776
    Two-Electron Energy =                  38.8082116534346468
    Total Energy =                        -75.9308181087958758
  Basis Set: (6-31G AUX)
    Blend: CC-PVDZ-RI
    Molecular point group: cs

    Geometry (in Angstrom), charge = 0, multiplicity = 1:

       Center              X                  Y                   Z               Mass
    ------------   -----------------  -----------------  -----------------  -----------------
           O          0.022382974654     0.011593243648     0.000000000000    15.994914619560
           H          0.022382974654    -0.888406756352     0.000000000000     1.007825032070
           H         -0.377617025346     0.704413566648     0.000000000000     1.007825032070

  Basis Set: 6-31G
    Blend: 6-31G
  Basis Set: (6-31G AUX)
    Blend: CC-PVDZ-JKFIT
  Basis Set: (6-31G AUX)
    Blend: CC-PVDZ-JKFIT
	 Reference Energy          =     -75.9308181087958616 [Eh]
	 Singles Energy            =      -0.0000000000000000 [Eh]
	 Same-Spin Energy          =      -0.0285343581298771 [Eh]
	 Opposite-Spin Energy      =      -0.0899088443826459 [Eh]
	 Correlation Energy        =      -0.1184432025125230 [Eh]
	 Total Energy              =     -76.0492613113083848 [Eh]

	 ================> DF-SCS-MP2 Energies <==================
	-----------------------------------------------------------
	 SCS Same-Spin Scale       =       0.3333333333333333 [-]
	 SCS Opposite-Spin Scale   =       1.2000000000000000 [-]
	 SCS Same-Spin Energy      =      -0.0095114527099590 [Eh]
	 SCS Opposite-Spin Energy  =      -0.1078906132591751 [Eh]
	 SCS Correlation Energy    =      -0.1174020659691341 [Eh]
	 SCS Total Energy          =     -76.0482201747649924 [Eh]
	-----------------------------------------------------------

  -Total Gradient:
     Atom            X                  Y                   Z
    ------   -----------------  -----------------  -----------------
       1       -0.197514160457     0.179219155849    -0.000000000000
       2        0.026426975823     0.057651844504    -0.000000000000
       3        0.171087184634    -0.236871000354     0.000000000000

*** Psi4 exiting successfully. Buy a developer a beer!
