                               Psi4 1.2a1.dev429

  ==> Input File <==

--------------------------------------------------------------------------
# density-fitted hartree fock energies and gradients with 6-31g
molecule h20 {
0 1
O 0.0000000000 0.0000000000 0.0000000000
H 0.0000000000 0.0000000000 1.0000000000
H 0.0000000000 0.9526279442 -0.5500000000
}

set basis 6-31g

gradient('hf')
--------------------------------------------------------------------------

    Molecular point group: cs
  Charge       = 0
  Multiplicity = 1
  Basis Set: 6-31G
    Blend: 6-31G
  Basis Set: (6-31G AUX)
    Blend: CC-PVDZ-JKFIT

    Orbital Energies (a.u.)
    -----------------------

    Doubly Occupied:

       1Ap   -20.563612     2Ap    -1.299058     3Ap    -0.680537
       4Ap    -0.517584     1App   -0.487716

  @DF-RHF Final Energy:   -75.96225899920947

   => Energetics <=

    Nuclear Repulsion Energy =              8.3728412848253058
    One-Electron Energy =                -121.5731856216534936
    Two-Electron Energy =                  37.2380853376187133
    Total Energy =                        -75.9622589992094674
    Molecular point group: cs

    Geometry (in Angstrom), charge = 0, multiplicity = 1:

       Center              X                  Y                   Z               Mass
    ------------   -----------------  -----------------  -----------------  -----------------
           O          0.053306617825     0.025180846486     0.000000000000    15.994914619560
           H          0.053306617825    -0.974819153514     0.000000000000     1.007825032070
           H         -0.899321326375     0.575180846486     0.000000000000     1.007825032070

  Basis Set: 6-31G
    Blend: 6-31G
  Basis Set: (6-31G AUX)
    Blend: CC-PVDZ-JKFIT

  -Total Gradient:
     Atom            X                  Y                   Z
    ------   -----------------  -----------------  -----------------
       1        0.065134165766    -0.019055382141     0.000000000000
       2        0.018644376831    -0.048885702215     0.000000000000
       3       -0.083778542597     0.067941084356     0.000000000000

*** Psi4 exiting successfully. Buy a developer a beer!
