                               Psi4 1.2a1.dev429

  ==> Input File <==

--------------------------------------------------------------------------
# density-fitted hartree fock energies and gradients with 6-31g
molecule h2o {
0 1
O 0.0000000000 0.0000000000 0.0000000000
H 0.0000000000 0.0000000000 1.0000000000
H 0.0000000000 0.9641814145 -1.1490666647
}

set basis 6-31g

gradient('mp2')
--------------------------------------------------------------------------

    Molecular point group: cs
  Charge       = 0
  Multiplicity = 1
  Basis Set: 6-31G
    Blend: 6-31G
  Basis Set: (6-31G AUX)
    Blend: CC-PVDZ-JKFIT

    Orbital Energies (a.u.)
    -----------------------

    Doubly Occupied:

       1Ap   -20.559745     2Ap    -1.245186     3Ap    -0.611638
       1App   -0.465599     4Ap    -0.448431

  @DF-RHF Final Energy:   -75.83968156180576

   => Energetics <=

    Nuclear Repulsion Energy =              7.2803571139097629
    One-Electron Energy =                -119.5788802077756827
    Two-Electron Energy =                  36.4588415320601555
    Total Energy =                        -75.8396815618057758
  Basis Set: (6-31G AUX)
    Blend: CC-PVDZ-RI
    Molecular point group: cs

    Geometry (in Angstrom), charge = 0, multiplicity = 1:

       Center              X                  Y                   Z               Mass
    ------------   -----------------  -----------------  -----------------  -----------------
           O          0.053953120408    -0.008341388445     0.000000000000    15.994914619560
           H          0.053953120408    -1.008341388445     0.000000000000     1.007825032070
           H         -0.910228294092     1.140725276255     0.000000000000     1.007825032070

  Basis Set: 6-31G
    Blend: 6-31G
  Basis Set: (6-31G AUX)
    Blend: CC-PVDZ-JKFIT
  Basis Set: (6-31G AUX)
    Blend: CC-PVDZ-JKFIT
	 Reference Energy          =     -75.8396815618057616 [Eh]
	 Singles Energy            =      -0.0000000000000000 [Eh]
	 Same-Spin Energy          =      -0.0345932124833720 [Eh]
	 Opposite-Spin Energy      =      -0.1172757325003865 [Eh]
	 Correlation Energy        =      -0.1518689449837585 [Eh]
	 Total Energy              =     -75.9915505067895225 [Eh]

	 ================> DF-SCS-MP2 Energies <==================
	-----------------------------------------------------------
	 SCS Same-Spin Scale       =       0.3333333333333333 [-]
	 SCS Opposite-Spin Scale   =       1.2000000000000000 [-]
	 SCS Same-Spin Energy      =      -0.0115310708277907 [Eh]
	 SCS Opposite-Spin Energy  =      -0.1407308790004638 [Eh]
	 SCS Correlation Energy    =      -0.1522619498282544 [Eh]
	 SCS Total Energy          =     -75.9919435116340196 [Eh]
	-----------------------------------------------------------

  -Total Gradient:
     Atom            X                  Y                   Z
    ------   -----------------  -----------------  -----------------
       1       -0.001244589245    -0.084004071553    -0.000000000000
       2        0.045858401262    -0.016726604546     0.000000000000
       3       -0.044613812017     0.100730676099    -0.000000000000

*** Psi4 exiting successfully. Buy a developer a beer!
