                               Psi4 1.2a1.dev429

  ==> Input File <==

--------------------------------------------------------------------------
# density-fitted hartree fock energies and gradients with 6-31g
molecule h20 {
0 1
O 0.0000000000 0.0000000000 0.0000000000
H 0.0000000000 0.0000000000 1.2000000000
H 0.0000000000 0.9396926208 -0.3420201433
}

set basis 6-31g

gradient('hf')
--------------------------------------------------------------------------

    Molecular point group: cs
  Charge       = 0
  Multiplicity = 1
  Basis Set: 6-31G
    Blend: 6-31G
  Basis Set: (6-31G AUX)
    Blend: CC-PVDZ-JKFIT

    Orbital Energies (a.u.)
    -----------------------

    Doubly Occupied:

       1Ap   -20.581595     2Ap    -1.295541     3Ap    -0.648828
       4Ap    -0.525919     1App   -0.493375

  @DF-RHF Final Energy:   -75.94441053150467

   => Energetics <=

    Nuclear Repulsion Energy =              8.0543117480932374
    One-Electron Energy =                -120.9069289716100997
    Two-Electron Energy =                  36.9082066920121932
    Total Energy =                        -75.9444105315046727
    Molecular point group: cs

    Geometry (in Angstrom), charge = 0, multiplicity = 1:

       Center              X                  Y                   Z               Mass
    ------------   -----------------  -----------------  -----------------  -----------------
           O          0.052582790286     0.048010353466     0.000000000000    15.994914619560
           H          0.052582790286    -1.151989646534     0.000000000000     1.007825032070
           H         -0.887109830514     0.390030496766     0.000000000000     1.007825032070

  Basis Set: 6-31G
    Blend: 6-31G
  Basis Set: (6-31G AUX)
    Blend: CC-PVDZ-JKFIT

  -Total Gradient:
     Atom            X                  Y                   Z
    ------   -----------------  -----------------  -----------------
       1        0.030940391791     0.103855526019     0.000000000000
       2        0.006541874766    -0.125852016290     0.000000000000
       3       -0.037482266558     0.021996490271     0.000000000000

*** Psi4 exiting successfully. Buy a developer a beer!
