                               Psi4 1.3.1 release

  ==> Input File <==

--------------------------------------------------------------------------
# density fitted hartree fock
molecule h2o {
0 1
H 0.0000000000 0.0000000000 1.2000000000
H 0.0000000000 0.9055554621 -0.2426428548
O 0.0000000000 0.0000000000 0.0000000000
}

set basis 6-31g
energy('hf')

--------------------------------------------------------------------------

    Molecular point group: cs

    Geometry (in Angstrom), charge = 0, multiplicity = 1:

       Center              X                  Y                   Z               Mass
    ------------   -----------------  -----------------  -----------------  -----------------
         H            0.050672562398    -1.146428748202     0.000000000000     1.007825032230
         H           -0.854882899702     0.296214106598     0.000000000000     1.007825032230
         O            0.050672562398     0.053571251798     0.000000000000    15.994914619570

  Charge       = 0
  Multiplicity = 1
  Basis Set: 6-31G
    Blend: 6-31G
  Basis Set: (6-31G AUX)
    Blend: CC-PVDZ-JKFIT

    Orbital Energies [Eh]
    ---------------------

    Doubly Occupied:

       1Ap   -20.579596     2Ap    -1.318434     3Ap    -0.660767
       4Ap    -0.536953     1App   -0.497842

  @DF-RHF Final Energy:   -75.94649012913972

   => Energetics <=

    Nuclear Repulsion Energy =              8.3541702593475904
    One-Electron Energy =                -121.4141215679564283
    Two-Electron Energy =                  37.1134611794691338
    Total Energy =                        -75.9464901291397041

  Dipole Moment: [D]
     X:    -2.0515      Y:    -1.6536      Z:     0.0000     Total:     2.6350

*** Psi4 exiting successfully. Buy a developer a beer!
