                               Psi4 1.2a1.dev429

  ==> Input File <==

--------------------------------------------------------------------------
# density-fitted hartree fock energies and gradients with 6-31g
molecule h2o {
0 1
O 0.0000000000 0.0000000000 0.0000000000
H 0.0000000000 0.0000000000 1.0000000000
H 0.0000000000 0.7660444431 -0.6427876097
}

set basis 6-31g

gradient('mp2')
--------------------------------------------------------------------------

    Molecular point group: c2v
  Charge       = 0
  Multiplicity = 1
  Basis Set: 6-31G
    Blend: 6-31G
  Basis Set: (6-31G AUX)
    Blend: CC-PVDZ-JKFIT

    Orbital Energies (a.u.)
    -----------------------

    Doubly Occupied:

       1A1   -20.545222     2A1    -1.307867     1B2    -0.718113
       3A1    -0.507410     1B1    -0.483725

  @DF-RHF Final Energy:   -75.97086734782208

   => Energetics <=

    Nuclear Repulsion Energy =              8.7587765610524535
    One-Electron Energy =                -122.3346160992939531
    Two-Electron Energy =                  37.6049721904194172
    Total Energy =                        -75.9708673478220788
  Basis Set: (6-31G AUX)
    Blend: CC-PVDZ-RI
    Molecular point group: c2v

    Geometry (in Angstrom), charge = 0, multiplicity = 1:

       Center              X                  Y                   Z               Mass
    ------------   -----------------  -----------------  -----------------  -----------------
           O         -0.000000000000     0.000000000000    -0.047297269204    15.994914619560
           H          0.000000000000    -0.906307787039     0.375320992525     1.007825032070
           H         -0.000000000000     0.906307787039     0.375320992525     1.007825032070

  Basis Set: 6-31G
    Blend: 6-31G
  Basis Set: (6-31G AUX)
    Blend: CC-PVDZ-JKFIT
  Basis Set: (6-31G AUX)
    Blend: CC-PVDZ-JKFIT
	 Reference Energy          =     -75.9708673478220788 [Eh]
	 Singles Energy            =      -0.0000000000000000 [Eh]
	 Same-Spin Energy          =      -0.0311918924035286 [Eh]
	 Opposite-Spin Energy      =      -0.0999634407699779 [Eh]
	 Correlation Energy        =      -0.1311553331735065 [Eh]
	 Total Energy              =     -76.1020226809955886 [Eh]

	 ================> DF-SCS-MP2 Energies <==================
	-----------------------------------------------------------
	 SCS Same-Spin Scale       =       0.3333333333333333 [-]
	 SCS Opposite-Spin Scale   =       1.2000000000000000 [-]
	 SCS Same-Spin Energy      =      -0.0103972974678429 [Eh]
	 SCS Opposite-Spin Energy  =      -0.1199561289239735 [Eh]
	 SCS Correlation Energy    =      -0.1303534263918164 [Eh]
	 SCS Total Energy          =     -76.1012207742138997 [Eh]
	-----------------------------------------------------------

  -Total Gradient:
     Atom            X                  Y                   Z
    ------   -----------------  -----------------  -----------------
       1       -0.000000000000     0.000000000008     0.020470965280
       2        0.000000000000    -0.043497645723    -0.010235482638
       3        0.000000000000     0.043497645715    -0.010235482641

*** Psi4 exiting successfully. Buy a developer a beer!
