                               Psi4 1.3.1 release

  ==> Input File <==

--------------------------------------------------------------------------
# density fitted hartree fock
molecule h2o {
0 1
H 0.0000000000 0.0000000000 1.1000000000
H 0.0000000000 0.9972037972 -0.0747300936
O 0.0000000000 0.0000000000 0.0000000000
}

set basis 6-31g
energy('hf')

--------------------------------------------------------------------------

    Molecular point group: cs

    Geometry (in Angstrom), charge = 0, multiplicity = 1:

       Center              X                  Y                   Z               Mass
    ------------   -----------------  -----------------  -----------------  -----------------
         H            0.055800968303    -1.042628524170     0.000000000000     1.007825032230
         H           -0.941402828897     0.132101569430     0.000000000000     1.007825032230
         O            0.055800968303     0.057371475830     0.000000000000    15.994914619570

  Charge       = 0
  Multiplicity = 1
  Basis Set: 6-31G
    Blend: 6-31G
  Basis Set: (6-31G AUX)
    Blend: CC-PVDZ-JKFIT

    Orbital Energies [Eh]
    ---------------------

    Doubly Occupied:

       1Ap   -20.586351     2Ap    -1.324829     3Ap    -0.647797
       4Ap    -0.564707     1App   -0.503313

  @DF-RHF Final Energy:   -75.96173985323156

   => Energetics <=

    Nuclear Repulsion Energy =              8.4253976671752824
    One-Electron Energy =                -121.5202748294361612
    Two-Electron Energy =                  37.1331373090293084
    Total Energy =                        -75.9617398532315633

  Dipole Moment: [D]
     X:    -2.0656      Y:    -1.9069      Z:     0.0000     Total:     2.8112

*** Psi4 exiting successfully. Buy a developer a beer!
