                               Psi4 1.3.1 release

  ==> Input File <==

--------------------------------------------------------------------------
# density fitted hartree fock
molecule h2o {
0 1
H 0.0000000000 0.0000000000 1.0000000000
H 0.0000000000 1.0000000000 0.0000000000
O 0.0000000000 0.0000000000 0.0000000000
}

set basis 6-31g
energy('hf')

--------------------------------------------------------------------------

    Molecular point group: c2v

    Geometry (in Angstrom), charge = 0, multiplicity = 1:

       Center              X                  Y                   Z               Mass
    ------------   -----------------  -----------------  -----------------  -----------------
         H            0.000000000000    -0.707106781187     0.627971015369     1.007825032230
         H           -0.000000000000     0.707106781187     0.627971015369     1.007825032230
         O            0.000000000000     0.000000000000    -0.079135765818    15.994914619570

  Charge       = 0
  Multiplicity = 1
  Basis Set: 6-31G
    Blend: 6-31G
  Basis Set: (6-31G AUX)
    Blend: CC-PVDZ-JKFIT

    Orbital Energies [Eh]
    ---------------------

    Doubly Occupied:

       1A1   -20.579243     2A1    -1.350632     1B2    -0.661224
       3A1    -0.582608     1B1    -0.506534

  @DF-RHF Final Energy:   -75.96968520763507

   => Energetics <=

    Nuclear Repulsion Energy =              8.8410201648341395
    One-Electron Energy =                -122.2609298120393220
    Two-Electron Energy =                  37.4502244395701283
    Total Energy =                        -75.9696852076350524

  Dipole Moment: [D]
     X:     0.0000      Y:     0.0000      Z:     2.8661     Total:     2.8661

*** Psi4 exiting successfully. Buy a developer a beer!
