                               Psi4 1.2a1.dev429

  ==> Input File <==

--------------------------------------------------------------------------
# density-fitted hartree fock energies and gradients with 6-31g
molecule h2o {
0 1
O 0.0000000000 0.0000000000 0.0000000000
H 0.0000000000 0.0000000000 1.0000000000
H 0.0000000000 0.4446261863 -1.2216004070
}

set basis 6-31g

gradient('mp2')
--------------------------------------------------------------------------

    Molecular point group: cs
  Charge       = 0
  Multiplicity = 1
  Basis Set: 6-31G
    Blend: 6-31G
  Basis Set: (6-31G AUX)
    Blend: CC-PVDZ-JKFIT

    Orbital Energies (a.u.)
    -----------------------

    Doubly Occupied:

       1Ap   -20.518326     2Ap    -1.229030     3Ap    -0.640558
       1App   -0.443991     4Ap    -0.441788

  @DF-RHF Final Energy:   -75.86784453999260

   => Energetics <=

    Nuclear Repulsion Energy =              7.7234573898860983
    One-Electron Energy =                -120.6352173119903455
    Two-Electron Energy =                  37.0439153821116491
    Total Energy =                        -75.8678445399926034
  Basis Set: (6-31G AUX)
    Blend: CC-PVDZ-RI
    Molecular point group: cs

    Geometry (in Angstrom), charge = 0, multiplicity = 1:

       Center              X                  Y                   Z               Mass
    ------------   -----------------  -----------------  -----------------  -----------------
           O          0.024880141647    -0.012400190733     0.000000000000    15.994914619560
           H          0.024880141647    -1.012400190733     0.000000000000     1.007825032070
           H         -0.419746044653     1.209200216267     0.000000000000     1.007825032070

  Basis Set: 6-31G
    Blend: 6-31G
  Basis Set: (6-31G AUX)
    Blend: CC-PVDZ-JKFIT
  Basis Set: (6-31G AUX)
    Blend: CC-PVDZ-JKFIT
	 Reference Energy          =     -75.8678445399926034 [Eh]
	 Singles Energy            =      -0.0000000000000000 [Eh]
	 Same-Spin Energy          =      -0.0331951236587819 [Eh]
	 Opposite-Spin Energy      =      -0.1055496074681646 [Eh]
	 Correlation Energy        =      -0.1387447311269466 [Eh]
	 Total Energy              =     -76.0065892711195517 [Eh]

	 ================> DF-SCS-MP2 Energies <==================
	-----------------------------------------------------------
	 SCS Same-Spin Scale       =       0.3333333333333333 [-]
	 SCS Opposite-Spin Scale   =       1.2000000000000000 [-]
	 SCS Same-Spin Energy      =      -0.0110650412195940 [Eh]
	 SCS Opposite-Spin Energy  =      -0.1266595289617976 [Eh]
	 SCS Correlation Energy    =      -0.1377245701813916 [Eh]
	 SCS Total Energy          =     -76.0055691101739939 [Eh]
	-----------------------------------------------------------

  -Total Gradient:
     Atom            X                  Y                   Z
    ------   -----------------  -----------------  -----------------
       1       -0.021004659542    -0.100006392707     0.000000000000
       2        0.038896986011    -0.036634814069    -0.000000000000
       3       -0.017892326469     0.136641206776     0.000000000000

*** Psi4 exiting successfully. Buy a developer a beer!
