                               Psi4 1.2a1.dev429

  ==> Input File <==

--------------------------------------------------------------------------
# density-fitted hartree fock energies and gradients with 6-31g
molecule h2o {
0 1
O 0.0000000000 0.0000000000 0.0000000000
H 0.0000000000 0.0000000000 1.3000000000
H 0.0000000000 0.8863269777 -0.1562833599
}

set basis 6-31g

gradient('mp2')
--------------------------------------------------------------------------

    Molecular point group: cs
  Charge       = 0
  Multiplicity = 1
  Basis Set: 6-31G
    Blend: 6-31G
  Basis Set: (6-31G AUX)
    Blend: CC-PVDZ-JKFIT

    Orbital Energies (a.u.)
    -----------------------

    Doubly Occupied:

       1Ap   -20.586920     2Ap    -1.327378     3Ap    -0.653621
       4Ap    -0.530802     1App   -0.501662

  @DF-RHF Final Energy:   -75.91824956327650

   => Energetics <=

    Nuclear Repulsion Energy =              8.2706771515211148
    One-Electron Energy =                -121.1770875899045876
    Two-Electron Energy =                  36.9881608751069635
    Total Energy =                        -75.9182495632765040
  Basis Set: (6-31G AUX)
    Blend: CC-PVDZ-RI
    Molecular point group: cs

    Geometry (in Angstrom), charge = 0, multiplicity = 1:

       Center              X                  Y                   Z               Mass
    ------------   -----------------  -----------------  -----------------  -----------------
           O          0.049596585694     0.063999451418     0.000000000000    15.994914619560
           H          0.049596585694    -1.236000548582     0.000000000000     1.007825032070
           H         -0.836730392006     0.220282811318     0.000000000000     1.007825032070

  Basis Set: 6-31G
    Blend: 6-31G
  Basis Set: (6-31G AUX)
    Blend: CC-PVDZ-JKFIT
  Basis Set: (6-31G AUX)
    Blend: CC-PVDZ-JKFIT
	 Reference Energy          =     -75.9182495632765040 [Eh]
	 Singles Energy            =      -0.0000000000000000 [Eh]
	 Same-Spin Energy          =      -0.0322916838764802 [Eh]
	 Opposite-Spin Energy      =      -0.1089869664171185 [Eh]
	 Correlation Energy        =      -0.1412786502935987 [Eh]
	 Total Energy              =     -76.0595282135701041 [Eh]

	 ================> DF-SCS-MP2 Energies <==================
	-----------------------------------------------------------
	 SCS Same-Spin Scale       =       0.3333333333333333 [-]
	 SCS Opposite-Spin Scale   =       1.2000000000000000 [-]
	 SCS Same-Spin Energy      =      -0.0107638946254934 [Eh]
	 SCS Opposite-Spin Energy  =      -0.1307843597005422 [Eh]
	 SCS Correlation Energy    =      -0.1415482543260356 [Eh]
	 SCS Total Energy          =     -76.0597978176025435 [Eh]
	-----------------------------------------------------------

  -Total Gradient:
     Atom            X                  Y                   Z
    ------   -----------------  -----------------  -----------------
       1       -0.101257595810     0.129190508651     0.000000000000
       2       -0.002528045238    -0.107182350817    -0.000000000000
       3        0.103785641048    -0.022008157834    -0.000000000000

*** Psi4 exiting successfully. Buy a developer a beer!
