                               Psi4 1.2a1.dev429

  ==> Input File <==

--------------------------------------------------------------------------
# density-fitted hartree fock energies and gradients with 6-31g
molecule h2o {
0 1
O 0.0000000000 0.0000000000 0.0000000000
H 0.0000000000 0.0000000000 1.5000000000
H 0.0000000000 1.0000000000 0.0000000000
}

set basis 6-31g

gradient('mp2')
--------------------------------------------------------------------------

    Molecular point group: cs
  Charge       = 0
  Multiplicity = 1
  Basis Set: 6-31G
    Blend: 6-31G
  Basis Set: (6-31G AUX)
    Blend: CC-PVDZ-JKFIT

    Orbital Energies (a.u.)
    -----------------------

    Doubly Occupied:

       1Ap   -20.617638     2Ap    -1.292384     3Ap    -0.616256
       1App   -0.507464     4Ap    -0.500027

  @DF-RHF Final Energy:   -75.86947335015404

   => Energetics <=

    Nuclear Repulsion Energy =              7.3492308159761253
    One-Electron Energy =                -119.3698719447292120
    Two-Electron Energy =                  36.1511677785990457
    Total Energy =                        -75.8694733501540384
  Basis Set: (6-31G AUX)
    Blend: CC-PVDZ-RI
    Molecular point group: cs

    Geometry (in Angstrom), charge = 0, multiplicity = 1:

       Center              X                  Y                   Z               Mass
    ------------   -----------------  -----------------  -----------------  -----------------
           O          0.055957436636     0.083936154954     0.000000000000    15.994914619560
           H          0.055957436636    -1.416063845046     0.000000000000     1.007825032070
           H         -0.944042563364     0.083936154954     0.000000000000     1.007825032070

  Basis Set: 6-31G
    Blend: 6-31G
  Basis Set: (6-31G AUX)
    Blend: CC-PVDZ-JKFIT
  Basis Set: (6-31G AUX)
    Blend: CC-PVDZ-JKFIT
	 Reference Energy          =     -75.8694733501540384 [Eh]
	 Singles Energy            =      -0.0000000000000000 [Eh]
	 Same-Spin Energy          =      -0.0352473065466613 [Eh]
	 Opposite-Spin Energy      =      -0.1226874859942574 [Eh]
	 Correlation Energy        =      -0.1579347925409187 [Eh]
	 Total Energy              =     -76.0274081426949522 [Eh]

	 ================> DF-SCS-MP2 Energies <==================
	-----------------------------------------------------------
	 SCS Same-Spin Scale       =       0.3333333333333333 [-]
	 SCS Opposite-Spin Scale   =       1.2000000000000000 [-]
	 SCS Same-Spin Energy      =      -0.0117491021822204 [Eh]
	 SCS Opposite-Spin Energy  =      -0.1472249831931089 [Eh]
	 SCS Correlation Energy    =      -0.1589740853753293 [Eh]
	 SCS Total Energy          =     -76.0284474355293725 [Eh]
	-----------------------------------------------------------

  -Total Gradient:
     Atom            X                  Y                   Z
    ------   -----------------  -----------------  -----------------
       1        0.006522953528     0.104572026558    -0.000000000000
       2       -0.005329470878    -0.096577818383    -0.000000000000
       3       -0.001193482651    -0.007994208175     0.000000000000

*** Psi4 exiting successfully. Buy a developer a beer!
