                               Psi4 1.2a1.dev429

  ==> Input File <==

--------------------------------------------------------------------------
# density-fitted hartree fock energies and gradients with 6-31g
molecule h2o {
0 1
O 0.0000000000 0.0000000000 0.0000000000
H 0.0000000000 0.0000000000 0.8000000000
H 0.0000000000 0.5000000000 -0.8660254038
}

set basis 6-31g

gradient('mp2')
--------------------------------------------------------------------------

    Molecular point group: cs
  Charge       = 0
  Multiplicity = 1
  Basis Set: 6-31G
    Blend: 6-31G
  Basis Set: (6-31G AUX)
    Blend: CC-PVDZ-JKFIT

    Orbital Energies (a.u.)
    -----------------------

    Doubly Occupied:

       1Ap   -20.512630     2Ap    -1.351317     3Ap    -0.800424
       4Ap    -0.493603     1App   -0.483979

  @DF-RHF Final Energy:   -75.92587320619073

   => Energetics <=

    Nuclear Repulsion Energy =              9.8294130442068752
    One-Electron Energy =                -124.2266672336384374
    Two-Electron Energy =                  38.4713809832408344
    Total Energy =                        -75.9258732061907295
  Basis Set: (6-31G AUX)
    Blend: CC-PVDZ-RI
    Molecular point group: cs

    Geometry (in Angstrom), charge = 0, multiplicity = 1:

       Center              X                  Y                   Z               Mass
    ------------   -----------------  -----------------  -----------------  -----------------
           O          0.027978718318    -0.003694612350     0.000000000000    15.994914619560
           H          0.027978718318    -0.803694612350     0.000000000000     1.007825032070
           H         -0.472021281682     0.862330791450     0.000000000000     1.007825032070

  Basis Set: 6-31G
    Blend: 6-31G
  Basis Set: (6-31G AUX)
    Blend: CC-PVDZ-JKFIT
  Basis Set: (6-31G AUX)
    Blend: CC-PVDZ-JKFIT
	 Reference Energy          =     -75.9258732061907295 [Eh]
	 Singles Energy            =      -0.0000000000000000 [Eh]
	 Same-Spin Energy          =      -0.0294118368031142 [Eh]
	 Opposite-Spin Energy      =      -0.0927524698045277 [Eh]
	 Correlation Energy        =      -0.1221643066076419 [Eh]
	 Total Energy              =     -76.0480375127983734 [Eh]

	 ================> DF-SCS-MP2 Energies <==================
	-----------------------------------------------------------
	 SCS Same-Spin Scale       =       0.3333333333333333 [-]
	 SCS Opposite-Spin Scale   =       1.2000000000000000 [-]
	 SCS Same-Spin Energy      =      -0.0098039456010381 [Eh]
	 SCS Opposite-Spin Energy  =      -0.1113029637654332 [Eh]
	 SCS Correlation Energy    =      -0.1211069093664713 [Eh]
	 SCS Total Energy          =     -76.0469801155572043 [Eh]
	-----------------------------------------------------------

  -Total Gradient:
     Atom            X                  Y                   Z
    ------   -----------------  -----------------  -----------------
       1       -0.028578897238    -0.358728789813     0.000000000000
       2        0.033778946297     0.295675726257    -0.000000000000
       3       -0.005200049059     0.063053063557     0.000000000000

*** Psi4 exiting successfully. Buy a developer a beer!
