                               Psi4 1.2a1.dev429

  ==> Input File <==

--------------------------------------------------------------------------
# density-fitted hartree fock energies and gradients with 6-31g
molecule h2o {
0 1
O 0.0000000000 0.0000000000 0.0000000000
H 0.0000000000 0.0000000000 1.1000000000
H 0.0000000000 0.0000000000 -0.9000000000
}

set basis 6-31g

gradient('mp2')
--------------------------------------------------------------------------

    Molecular point group: c2v
  Charge       = 0
  Multiplicity = 1
  Basis Set: 6-31G
    Blend: 6-31G
  Basis Set: (6-31G AUX)
    Blend: CC-PVDZ-JKFIT

    Orbital Energies (a.u.)
    -----------------------

    Doubly Occupied:

       1A1   -20.502868     2A1    -1.277881     3A1    -0.733012
       1B2    -0.457067     1B1    -0.457067

  @DF-RHF Final Energy:   -75.91653821972112

   => Energetics <=

    Nuclear Repulsion Energy =              8.8169475310020697
    One-Electron Energy =                -122.6111813076309573
    Two-Electron Energy =                  37.8776955569077671
    Total Energy =                        -75.9165382197211187
  Basis Set: (6-31G AUX)
    Blend: CC-PVDZ-RI
    Molecular point group: c2v

    Geometry (in Angstrom), charge = 0, multiplicity = 1:

       Center              X                  Y                   Z               Mass
    ------------   -----------------  -----------------  -----------------  -----------------
           O          0.000000000000     0.000000000000    -0.011191487327    15.994914619560
           H          0.000000000000     0.000000000000     1.088808512673     1.007825032070
           H          0.000000000000     0.000000000000    -0.911191487327     1.007825032070

  Basis Set: 6-31G
    Blend: 6-31G
  Basis Set: (6-31G AUX)
    Blend: CC-PVDZ-JKFIT
  Basis Set: (6-31G AUX)
    Blend: CC-PVDZ-JKFIT
	 Reference Energy          =     -75.9165382197211187 [Eh]
	 Singles Energy            =      -0.0000000000000000 [Eh]
	 Same-Spin Energy          =      -0.0309184504945735 [Eh]
	 Opposite-Spin Energy      =      -0.0967511158869735 [Eh]
	 Correlation Energy        =      -0.1276695663815469 [Eh]
	 Total Energy              =     -76.0442077861026604 [Eh]

	 ================> DF-SCS-MP2 Energies <==================
	-----------------------------------------------------------
	 SCS Same-Spin Scale       =       0.3333333333333333 [-]
	 SCS Opposite-Spin Scale   =       1.2000000000000000 [-]
	 SCS Same-Spin Energy      =      -0.0103061501648578 [Eh]
	 SCS Opposite-Spin Energy  =      -0.1161013390643682 [Eh]
	 SCS Correlation Energy    =      -0.1264074892292260 [Eh]
	 SCS Total Energy          =     -76.0429457089503416 [Eh]
	-----------------------------------------------------------

  -Total Gradient:
     Atom            X                  Y                   Z
    ------   -----------------  -----------------  -----------------
       1        0.000000000000    -0.000000000000    -0.181879249117
       2       -0.000000000000     0.000000000000     0.119598194592
       3       -0.000000000000     0.000000000000     0.062281054525

*** Psi4 exiting successfully. Buy a developer a beer!
