                               Psi4 1.2.1 release

  ==> Input File <==

--------------------------------------------------------------------------
# density fitted hartree fock
molecule h2o {
0 1
H 0.0000000000 0.0000000000 1.0250000000
H 0.0000000000 0.7361215932 -0.4250000000
O 0.0000000000 0.0000000000 0.0000000000
}

set basis 6-31g
energy('hf')

--------------------------------------------------------------------------

    Molecular point group: cs

    Geometry (in Angstrom), charge = 0, multiplicity = 1:

       Center              X                  Y                   Z               Mass
    ------------   -----------------  -----------------  -----------------  -----------------
         H            0.041191477408    -0.991425538018     0.000000000000     1.007825032070
         H           -0.694930115792     0.458574461982     0.000000000000     1.007825032070
         O            0.041191477408     0.033574461982     0.000000000000    15.994914619560

  Charge       = 0
  Multiplicity = 1
  Basis Set: 6-31G
    Blend: 6-31G
  Basis Set: (6-31G AUX)
    Blend: CC-PVDZ-JKFIT

    Orbital Energies [Eh]
    ---------------------

    Doubly Occupied:

       1Ap   -20.543583     2Ap    -1.358351     3Ap    -0.746437
       4Ap    -0.533258     1App   -0.495301

  @DF-RHF Final Energy:   -75.96489461540388

   => Energetics <=

    Nuclear Repulsion Energy =              9.4360714842538425
    One-Electron Energy =                -123.4480643100031614
    Two-Electron Energy =                  38.0470982103454389
    Total Energy =                        -75.9648946154038782

  Dipole Moment: [D]
     X:    -1.9234      Y:    -1.3158      Z:     0.0000     Total:     2.3304

*** Psi4 exiting successfully. Buy a developer a beer!
