                               Psi4 1.2a1.dev429

  ==> Input File <==

--------------------------------------------------------------------------
# density-fitted hartree fock energies and gradients with 6-31g
molecule h2o {
0 1
O 0.0000000000 0.0000000000 0.0000000000
H 0.0000000000 0.0000000000 1.5000000000
H 0.0000000000 0.7500000000 -1.2990381057
}

set basis 6-31g

gradient('mp2')
--------------------------------------------------------------------------

    Molecular point group: c2v
  Charge       = 0
  Multiplicity = 1
  Basis Set: 6-31G
    Blend: 6-31G
  Basis Set: (6-31G AUX)
    Blend: CC-PVDZ-JKFIT

    Orbital Energies (a.u.)
    -----------------------

    Doubly Occupied:

       1A1   -20.584144     2A1    -1.173157     1B2    -0.503521
       1B1    -0.456985     3A1    -0.426234

  @DF-RHF Final Energy:   -75.72003455450282

   => Energetics <=

    Nuclear Repulsion Energy =              5.8271717446769200
    One-Electron Energy =                -116.8063314748834927
    Two-Electron Energy =                  35.2591251757037583
    Total Energy =                        -75.7200345545028171
  Basis Set: (6-31G AUX)
    Blend: CC-PVDZ-RI
    Molecular point group: c2v

    Geometry (in Angstrom), charge = 0, multiplicity = 1:

       Center              X                  Y                   Z               Mass
    ------------   -----------------  -----------------  -----------------  -----------------
           O         -0.000000000000     0.000000000000    -0.043448550949    15.994914619560
           H          0.000000000000    -1.448888739445     0.344780016701     1.007825032070
           H         -0.000000000000     1.448888739445     0.344780016701     1.007825032070

  Basis Set: 6-31G
    Blend: 6-31G
  Basis Set: (6-31G AUX)
    Blend: CC-PVDZ-JKFIT
  Basis Set: (6-31G AUX)
    Blend: CC-PVDZ-JKFIT
	 Reference Energy          =     -75.7200345545028171 [Eh]
	 Singles Energy            =      -0.0000000000000000 [Eh]
	 Same-Spin Energy          =      -0.0382209032424796 [Eh]
	 Opposite-Spin Energy      =      -0.1347598779386047 [Eh]
	 Correlation Energy        =      -0.1729807811810843 [Eh]
	 Total Energy              =     -75.8930153356838986 [Eh]

	 ================> DF-SCS-MP2 Energies <==================
	-----------------------------------------------------------
	 SCS Same-Spin Scale       =       0.3333333333333333 [-]
	 SCS Opposite-Spin Scale   =       1.2000000000000000 [-]
	 SCS Same-Spin Energy      =      -0.0127403010808265 [Eh]
	 SCS Opposite-Spin Energy  =      -0.1617118535263256 [Eh]
	 SCS Correlation Energy    =      -0.1744521546071522 [Eh]
	 SCS Total Energy          =     -75.8944867091099695 [Eh]
	-----------------------------------------------------------

  -Total Gradient:
     Atom            X                  Y                   Z
    ------   -----------------  -----------------  -----------------
       1       -0.000000000000     0.000000000005     0.029748070133
       2        0.000000000000    -0.098437598560    -0.014874035067
       3        0.000000000000     0.098437598555    -0.014874035066

*** Psi4 exiting successfully. Buy a developer a beer!
