                               Psi4 1.2a1.dev429

  ==> Input File <==

--------------------------------------------------------------------------
# density-fitted hartree fock energies and gradients with 6-31g
molecule h20 {
0 1
O 0.0000000000 0.0000000000 0.0000000000
H 0.0000000000 0.0000000000 1.0000000000
H 0.0000000000 0.3420201433 -0.9396926208
}

set basis 6-31g

gradient('hf')
--------------------------------------------------------------------------

    Molecular point group: c2v
  Charge       = 0
  Multiplicity = 1
  Basis Set: 6-31G
    Blend: 6-31G
  Basis Set: (6-31G AUX)
    Blend: CC-PVDZ-JKFIT

    Orbital Energies (a.u.)
    -----------------------

    Doubly Occupied:

       1A1   -20.514589     2A1    -1.278148     1B2    -0.732928
       3A1    -0.466640     1B1    -0.463603

  @DF-RHF Final Energy:   -75.94174047806419

   => Energetics <=

    Nuclear Repulsion Energy =              8.7355056474226718
    One-Electron Energy =                -122.4426779071108058
    Two-Electron Energy =                  37.7654317816239455
    Total Energy =                        -75.9417404780641903
    Molecular point group: c2v

    Geometry (in Angstrom), charge = 0, multiplicity = 1:

       Center              X                  Y                   Z               Mass
    ------------   -----------------  -----------------  -----------------  -----------------
           O          0.000000000000     0.000000000000    -0.019433813796    15.994914619560
           H          0.000000000000    -0.984807753017     0.154214363857     1.007825032070
           H         -0.000000000000     0.984807753017     0.154214363857     1.007825032070

  Basis Set: 6-31G
    Blend: 6-31G
  Basis Set: (6-31G AUX)
    Blend: CC-PVDZ-JKFIT

  -Total Gradient:
     Atom            X                  Y                   Z
    ------   -----------------  -----------------  -----------------
       1        0.000000000000     0.000000000000     0.023769287878
       2        0.000000000000    -0.073372045599    -0.011884643939
       3       -0.000000000000     0.073372045599    -0.011884643939

*** Psi4 exiting successfully. Buy a developer a beer!
