                               Psi4 1.2a1.dev429

  ==> Input File <==

--------------------------------------------------------------------------
# density-fitted hartree fock energies and gradients with 6-31g
molecule h20 {
0 1
O 0.0000000000 0.0000000000 0.0000000000
H 0.0000000000 0.0000000000 1.4000000000
H 0.0000000000 0.4499513268 -0.5362311102
}

set basis 6-31g

gradient('hf')
--------------------------------------------------------------------------

    Molecular point group: cs
  Charge       = 0
  Multiplicity = 1
  Basis Set: 6-31G
    Blend: 6-31G
  Basis Set: (6-31G AUX)
    Blend: CC-PVDZ-JKFIT

    Orbital Energies (a.u.)
    -----------------------

    Doubly Occupied:

       1Ap   -20.524236     2Ap    -1.375427     3Ap    -0.701074
       1App   -0.475851     4Ap    -0.472089

  @DF-RHF Final Energy:   -75.73933162909731

   => Energetics <=

    Nuclear Repulsion Energy =              9.3378184802022925
    One-Electron Energy =                -123.0569452016003851
    Two-Electron Energy =                  37.9797950923007903
    Total Energy =                        -75.7393316290973075
    Molecular point group: cs

    Geometry (in Angstrom), charge = 0, multiplicity = 1:

       Center              X                  Y                   Z               Mass
    ------------   -----------------  -----------------  -----------------  -----------------
           O          0.025178122859     0.048334292919     0.000000000000    15.994914619560
           H          0.025178122859    -1.351665707081     0.000000000000     1.007825032070
           H         -0.424773203941     0.584565403119     0.000000000000     1.007825032070

  Basis Set: 6-31G
    Blend: 6-31G
  Basis Set: (6-31G AUX)
    Blend: CC-PVDZ-JKFIT

  -Total Gradient:
     Atom            X                  Y                   Z
    ------   -----------------  -----------------  -----------------
       1       -0.541766382384     0.684464804999     0.000000000000
       2        0.026140799289    -0.151301897243     0.000000000000
       3        0.515625583095    -0.533162907756     0.000000000000

*** Psi4 exiting successfully. Buy a developer a beer!
