                               Psi4 1.2a1.dev429

  ==> Input File <==

--------------------------------------------------------------------------
# density-fitted hartree fock energies and gradients with 6-31g
molecule h20 {
0 1
O 0.0000000000 0.0000000000 0.0000000000
H 0.0000000000 0.0000000000 0.8000000000
H 0.0000000000 0.3500000000 -0.6062177826
}

set basis 6-31g

gradient('hf')
--------------------------------------------------------------------------

    Molecular point group: cs
  Charge       = 0
  Multiplicity = 1
  Basis Set: 6-31G
    Blend: 6-31G
  Basis Set: (6-31G AUX)
    Blend: CC-PVDZ-JKFIT

    Orbital Energies (a.u.)
    -----------------------

    Doubly Occupied:

       1Ap   -20.500010     2Ap    -1.442052     3Ap    -0.930948
       4Ap    -0.522123     1App   -0.509975

  @DF-RHF Final Energy:   -75.81750921044841

   => Energetics <=

    Nuclear Repulsion Energy =             11.7046830613368442
    One-Electron Energy =                -127.2341710359106486
    Two-Electron Energy =                  39.7119787641254121
    Total Energy =                        -75.8175092104484065
    Molecular point group: cs

    Geometry (in Angstrom), charge = 0, multiplicity = 1:

       Center              X                  Y                   Z               Mass
    ------------   -----------------  -----------------  -----------------  -----------------
           O          0.019585102823     0.010843556151     0.000000000000    15.994914619560
           H          0.019585102823    -0.789156443849     0.000000000000     1.007825032070
           H         -0.330414897177     0.617061338751     0.000000000000     1.007825032070

  Basis Set: 6-31G
    Blend: 6-31G
  Basis Set: (6-31G AUX)
    Blend: CC-PVDZ-JKFIT

  -Total Gradient:
     Atom            X                  Y                   Z
    ------   -----------------  -----------------  -----------------
       1       -0.396713819559     0.341937906523     0.000000000000
       2        0.021549029710     0.258611645983     0.000000000000
       3        0.375164789850    -0.600549552506     0.000000000000

*** Psi4 exiting successfully. Buy a developer a beer!
