                               Psi4 1.2a1.dev429

  ==> Input File <==

--------------------------------------------------------------------------
# density-fitted hartree fock energies and gradients with 6-31g
molecule h20 {
0 1
O 0.0000000000 0.0000000000 0.0000000000
H 0.0000000000 0.0000000000 0.7000000000
H 0.0000000000 0.9192533317 -0.7713451316
}

set basis 6-31g

gradient('hf')
--------------------------------------------------------------------------

    Molecular point group: cs
  Charge       = 0
  Multiplicity = 1
  Basis Set: 6-31G
    Blend: 6-31G
  Basis Set: (6-31G AUX)
    Blend: CC-PVDZ-JKFIT

    Orbital Energies (a.u.)
    -----------------------

    Doubly Occupied:

       1Ap   -20.531506     2Ap    -1.398244     3Ap    -0.747227
       4Ap    -0.508796     1App   -0.491164

  @DF-RHF Final Energy:   -75.80691892008532

   => Energetics <=

    Nuclear Repulsion Energy =              9.8806061752801426
    One-Electron Energy =                -124.0211769524341605
    Two-Electron Energy =                  38.3336518570686806
    Total Energy =                        -75.8069189200853373
    Molecular point group: cs

    Geometry (in Angstrom), charge = 0, multiplicity = 1:

       Center              X                  Y                   Z               Mass
    ------------   -----------------  -----------------  -----------------  -----------------
           O          0.051439060061    -0.003992290681     0.000000000000    15.994914619560
           H          0.051439060061    -0.703992290681     0.000000000000     1.007825032070
           H         -0.867814271639     0.767352840919     0.000000000000     1.007825032070

  Basis Set: 6-31G
    Blend: 6-31G
  Basis Set: (6-31G AUX)
    Blend: CC-PVDZ-JKFIT

  -Total Gradient:
     Atom            X                  Y                   Z
    ------   -----------------  -----------------  -----------------
       1        0.061572789800    -0.845218181945     0.000000000000
       2        0.035954123472     0.736004765724     0.000000000000
       3       -0.097526913272     0.109213416221     0.000000000000

*** Psi4 exiting successfully. Buy a developer a beer!
