                               Psi4 1.3.1 release

  ==> Input File <==

--------------------------------------------------------------------------
# density fitted hartree fock
molecule h2o {
0 1
H 0.0000000000 0.0000000000 1.2000000000
H 0.0000000000 0.9900739719 -0.2652895212
O 0.0000000000 0.0000000000 0.0000000000
}

set basis 6-31g
energy('hf')

--------------------------------------------------------------------------

    Molecular point group: cs

    Geometry (in Angstrom), charge = 0, multiplicity = 1:

       Center              X                  Y                   Z               Mass
    ------------   -----------------  -----------------  -----------------  -----------------
         H            0.055402001556    -1.147695997602     0.000000000000     1.007825032230
         H           -0.934671970344     0.317593523598     0.000000000000     1.007825032230
         O            0.055402001556     0.052304002398     0.000000000000    15.994914619570

  Charge       = 0
  Multiplicity = 1
  Basis Set: 6-31G
    Blend: 6-31G
  Basis Set: (6-31G AUX)
    Blend: CC-PVDZ-JKFIT

    Orbital Energies [Eh]
    ---------------------

    Doubly Occupied:

       1Ap   -20.588887     2Ap    -1.294005     3Ap    -0.637366
       4Ap    -0.533218     1App   -0.496271

  @DF-RHF Final Energy:   -75.94271260585202

   => Energetics <=

    Nuclear Repulsion Energy =              7.9572484531645227
    One-Electron Energy =                -120.7004128890111474
    Two-Electron Energy =                  36.8004518299945929
    Total Energy =                        -75.9427126058520230

  Dipole Moment: [D]
     X:    -2.0796      Y:    -1.6257      Z:     0.0000     Total:     2.6396

*** Psi4 exiting successfully. Buy a developer a beer!
