                               Psi4 1.2a1.dev429

  ==> Input File <==

--------------------------------------------------------------------------
# density-fitted hartree fock energies and gradients with 6-31g
molecule h2o {
0 1
O 0.0000000000 0.0000000000 0.0000000000
H 0.0000000000 0.0000000000 1.4000000000
H 0.0000000000 0.0000000000 -1.4000000000
}

set basis 6-31g

gradient('mp2')
--------------------------------------------------------------------------

    Molecular point group: d2h
  Charge       = 0
  Multiplicity = 1
  Basis Set: 6-31G
    Blend: 6-31G
  Basis Set: (6-31G AUX)
    Blend: CC-PVDZ-JKFIT

    Orbital Energies (a.u.)
    -----------------------

    Doubly Occupied:

       1Ag   -20.507336     2Ag    -1.136878     1B1u   -0.513309
       1B3u   -0.408102     1B2u   -0.408102

  @DF-RHF Final Energy:   -75.73615817881816

   => Energetics <=

    Nuclear Repulsion Energy =              6.2367313869535712
    One-Electron Energy =                -117.9983263489411627
    Two-Electron Energy =                  36.0254367831694395
    Total Energy =                        -75.7361581788181581
  Basis Set: (6-31G AUX)
    Blend: CC-PVDZ-RI
    Molecular point group: d2h

    Geometry (in Angstrom), charge = 0, multiplicity = 1:

       Center              X                  Y                   Z               Mass
    ------------   -----------------  -----------------  -----------------  -----------------
           O          0.000000000000     0.000000000000     0.000000000000    15.994914619560
           H          0.000000000000     0.000000000000     1.400000000000     1.007825032070
           H          0.000000000000     0.000000000000    -1.400000000000     1.007825032070

  Basis Set: 6-31G
    Blend: 6-31G
  Basis Set: (6-31G AUX)
    Blend: CC-PVDZ-JKFIT
  Basis Set: (6-31G AUX)
    Blend: CC-PVDZ-JKFIT
	 Reference Energy          =     -75.7361581788181581 [Eh]
	 Singles Energy            =      -0.0000000000000000 [Eh]
	 Same-Spin Energy          =      -0.0345574266042816 [Eh]
	 Opposite-Spin Energy      =      -0.1117240682603142 [Eh]
	 Correlation Energy        =      -0.1462814948645958 [Eh]
	 Total Energy              =     -75.8824396736827538 [Eh]

	 ================> DF-SCS-MP2 Energies <==================
	-----------------------------------------------------------
	 SCS Same-Spin Scale       =       0.3333333333333333 [-]
	 SCS Opposite-Spin Scale   =       1.2000000000000000 [-]
	 SCS Same-Spin Energy      =      -0.0115191422014272 [Eh]
	 SCS Opposite-Spin Energy  =      -0.1340688819123770 [Eh]
	 SCS Correlation Energy    =      -0.1455880241138042 [Eh]
	 SCS Total Energy          =     -75.8817462029319643 [Eh]
	-----------------------------------------------------------

  -Total Gradient:
     Atom            X                  Y                   Z
    ------   -----------------  -----------------  -----------------
       1       -0.000000000000     0.000000000000     0.000000000005
       2        0.000000000000     0.000000000000     0.124515584067
       3        0.000000000000    -0.000000000000    -0.124515584072

*** Psi4 exiting successfully. Buy a developer a beer!
