                               Psi4 1.2a1.dev429

  ==> Input File <==

--------------------------------------------------------------------------
# density-fitted hartree fock energies and gradients with 6-31g
molecule h2o {
0 1
O 0.0000000000 0.0000000000 0.0000000000
H 0.0000000000 0.0000000000 1.4000000000
H 0.0000000000 1.1490666647 -0.9641814145
}

set basis 6-31g

gradient('mp2')
--------------------------------------------------------------------------

    Molecular point group: cs
  Charge       = 0
  Multiplicity = 1
  Basis Set: 6-31G
    Blend: 6-31G
  Basis Set: (6-31G AUX)
    Blend: CC-PVDZ-JKFIT

    Orbital Energies (a.u.)
    -----------------------

    Doubly Occupied:

       1Ap   -20.612804     2Ap    -1.201423     3Ap    -0.525974
       1App   -0.479803     4Ap    -0.453071

  @DF-RHF Final Energy:   -75.77039489197314

   => Energetics <=

    Nuclear Repulsion Energy =              6.0474609607824279
    One-Electron Energy =                -117.0895603750081477
    Two-Electron Energy =                  35.2717045222525911
    Total Energy =                        -75.7703948919731261
  Basis Set: (6-31G AUX)
    Blend: CC-PVDZ-RI
    Molecular point group: cs

    Geometry (in Angstrom), charge = 0, multiplicity = 1:

       Center              X                  Y                   Z               Mass
    ------------   -----------------  -----------------  -----------------  -----------------
           O          0.064298825081     0.024387290883     0.000000000000    15.994914619560
           H          0.064298825081    -1.375612709117     0.000000000000     1.007825032070
           H         -1.084767839619     0.988568705383     0.000000000000     1.007825032070

  Basis Set: 6-31G
    Blend: 6-31G
  Basis Set: (6-31G AUX)
    Blend: CC-PVDZ-JKFIT
  Basis Set: (6-31G AUX)
    Blend: CC-PVDZ-JKFIT
	 Reference Energy          =     -75.7703948919731403 [Eh]
	 Singles Energy            =      -0.0000000000000000 [Eh]
	 Same-Spin Energy          =      -0.0383800071235015 [Eh]
	 Opposite-Spin Energy      =      -0.1354625172818192 [Eh]
	 Correlation Energy        =      -0.1738425244053207 [Eh]
	 Total Energy              =     -75.9442374163784564 [Eh]

	 ================> DF-SCS-MP2 Energies <==================
	-----------------------------------------------------------
	 SCS Same-Spin Scale       =       0.3333333333333333 [-]
	 SCS Opposite-Spin Scale   =       1.2000000000000000 [-]
	 SCS Same-Spin Energy      =      -0.0127933357078338 [Eh]
	 SCS Opposite-Spin Energy  =      -0.1625550207381831 [Eh]
	 SCS Correlation Energy    =      -0.1753483564460169 [Eh]
	 SCS Total Energy          =     -75.9457432484191628 [Eh]
	-----------------------------------------------------------

  -Total Gradient:
     Atom            X                  Y                   Z
    ------   -----------------  -----------------  -----------------
       1        0.024724398338     0.016546322180     0.000000000000
       2        0.029519303889    -0.098027923925     0.000000000000
       3       -0.054243702228     0.081481601745    -0.000000000000

*** Psi4 exiting successfully. Buy a developer a beer!
