                               Psi4 1.2a1.dev429

  ==> Input File <==

--------------------------------------------------------------------------
# density-fitted hartree fock energies and gradients with 6-31g
molecule h2o {
0 1
O 0.0000000000 0.0000000000 0.0000000000
H 0.0000000000 0.0000000000 1.1000000000
H 0.0000000000 0.6928203230 -0.4000000000
}

set basis 6-31g

gradient('mp2')
--------------------------------------------------------------------------

    Molecular point group: cs
  Charge       = 0
  Multiplicity = 1
  Basis Set: 6-31G
    Blend: 6-31G
  Basis Set: (6-31G AUX)
    Blend: CC-PVDZ-JKFIT

    Orbital Energies (a.u.)
    -----------------------

    Doubly Occupied:

       1Ap   -20.544320     2Ap    -1.367601     3Ap    -0.739044
       4Ap    -0.529368     1App   -0.495266

  @DF-RHF Final Energy:   -75.93057753908545

   => Energetics <=

    Nuclear Repulsion Energy =              9.4606062193777358
    One-Electron Energy =                -123.4311718185329596
    Two-Electron Energy =                  38.0399880600697742
    Total Energy =                        -75.9305775390854478
  Basis Set: (6-31G AUX)
    Blend: CC-PVDZ-RI
    Molecular point group: cs

    Geometry (in Angstrom), charge = 0, multiplicity = 1:

       Center              X                  Y                   Z               Mass
    ------------   -----------------  -----------------  -----------------  -----------------
           O          0.038768449325     0.039170205645     0.000000000000    15.994914619560
           H          0.038768449325    -1.060829794355     0.000000000000     1.007825032070
           H         -0.654051873675     0.439170205645     0.000000000000     1.007825032070

  Basis Set: 6-31G
    Blend: 6-31G
  Basis Set: (6-31G AUX)
    Blend: CC-PVDZ-JKFIT
  Basis Set: (6-31G AUX)
    Blend: CC-PVDZ-JKFIT
	 Reference Energy          =     -75.9305775390854478 [Eh]
	 Singles Energy            =      -0.0000000000000000 [Eh]
	 Same-Spin Energy          =      -0.0298113205980148 [Eh]
	 Opposite-Spin Energy      =      -0.0968944763241039 [Eh]
	 Correlation Energy        =      -0.1267057969221186 [Eh]
	 Total Energy              =     -76.0572833360075720 [Eh]

	 ================> DF-SCS-MP2 Energies <==================
	-----------------------------------------------------------
	 SCS Same-Spin Scale       =       0.3333333333333333 [-]
	 SCS Opposite-Spin Scale   =       1.2000000000000000 [-]
	 SCS Same-Spin Energy      =      -0.0099371068660049 [Eh]
	 SCS Opposite-Spin Energy  =      -0.1162733715889246 [Eh]
	 SCS Correlation Energy    =      -0.1262104784549296 [Eh]
	 SCS Total Energy          =     -76.0567880175403843 [Eh]
	-----------------------------------------------------------

  -Total Gradient:
     Atom            X                  Y                   Z
    ------   -----------------  -----------------  -----------------
       1       -0.296792530701     0.234907949621    -0.000000000000
       2        0.012961750755    -0.091617715780    -0.000000000000
       3        0.283830779947    -0.143290233841     0.000000000000

*** Psi4 exiting successfully. Buy a developer a beer!
