                               Psi4 1.3.1 release

  ==> Input File <==

--------------------------------------------------------------------------
# density fitted hartree fock
molecule h2o {
0 1
H 0.0000000000 0.0000000000 1.2000000000
H 0.0000000000 0.8118988160 -0.4687500000
O 0.0000000000 0.0000000000 0.0000000000
}

set basis 6-31g
energy('hf')

--------------------------------------------------------------------------

    Molecular point group: cs

    Geometry (in Angstrom), charge = 0, multiplicity = 1:

       Center              X                  Y                   Z               Mass
    ------------   -----------------  -----------------  -----------------  -----------------
         H            0.045431776558    -1.159081124454     0.000000000000     1.007825032230
         H           -0.766467039442     0.509668875546     0.000000000000     1.007825032230
         O            0.045431776558     0.040918875546     0.000000000000    15.994914619570

  Charge       = 0
  Multiplicity = 1
  Basis Set: 6-31G
    Blend: 6-31G
  Basis Set: (6-31G AUX)
    Blend: CC-PVDZ-JKFIT

    Orbital Energies [Eh]
    ---------------------

    Doubly Occupied:

       1Ap   -20.564770     2Ap    -1.303458     3Ap    -0.674448
       4Ap    -0.511881     1App   -0.487691

  @DF-RHF Final Energy:   -75.94161473973864

   => Energetics <=

    Nuclear Repulsion Energy =              8.3286449789528678
    One-Electron Energy =                -121.4560099597534588
    Two-Electron Energy =                  37.1857502410619603
    Total Energy =                        -75.9416147397386396

  Dipole Moment: [D]
     X:    -1.9456      Y:    -1.3490      Z:     0.0000     Total:     2.3675

*** Psi4 exiting successfully. Buy a developer a beer!
