                               Psi4 1.2a1.dev429

  ==> Input File <==

--------------------------------------------------------------------------
# density-fitted hartree fock energies and gradients with 6-31g
molecule h2o {
0 1
O 0.0000000000 0.0000000000 0.0000000000
H 0.0000000000 0.0000000000 1.3000000000
H 0.0000000000 0.0000000000 -1.5000000000
}

set basis 6-31g

gradient('mp2')
--------------------------------------------------------------------------

    Molecular point group: c2v
  Charge       = 0
  Multiplicity = 1
  Basis Set: 6-31G
    Blend: 6-31G
  Basis Set: (6-31G AUX)
    Blend: CC-PVDZ-JKFIT

    Orbital Energies (a.u.)
    -----------------------

    Doubly Occupied:

       1A1   -20.505223     2A1    -1.138479     3A1    -0.514080
       1B2    -0.407241     1B1    -0.407241

  @DF-RHF Final Energy:   -75.73578807214990

   => Energetics <=

    Nuclear Repulsion Energy =              6.2677454358086617
    One-Electron Energy =                -118.0625386957570555
    Two-Electron Energy =                  36.0590051877984976
    Total Energy =                        -75.7357880721498873
  Basis Set: (6-31G AUX)
    Blend: CC-PVDZ-RI
    Molecular point group: c2v

    Geometry (in Angstrom), charge = 0, multiplicity = 1:

       Center              X                  Y                   Z               Mass
    ------------   -----------------  -----------------  -----------------  -----------------
           O          0.000000000000     0.000000000000     0.011191487327    15.994914619560
           H          0.000000000000     0.000000000000     1.311191487327     1.007825032070
           H          0.000000000000     0.000000000000    -1.488808512673     1.007825032070

  Basis Set: 6-31G
    Blend: 6-31G
  Basis Set: (6-31G AUX)
    Blend: CC-PVDZ-JKFIT
  Basis Set: (6-31G AUX)
    Blend: CC-PVDZ-JKFIT
	 Reference Energy          =     -75.7357880721499015 [Eh]
	 Singles Energy            =      -0.0000000000000000 [Eh]
	 Same-Spin Energy          =      -0.0346107292355750 [Eh]
	 Opposite-Spin Energy      =      -0.1119148949051628 [Eh]
	 Correlation Energy        =      -0.1465256241407378 [Eh]
	 Total Energy              =     -75.8823136962906375 [Eh]

	 ================> DF-SCS-MP2 Energies <==================
	-----------------------------------------------------------
	 SCS Same-Spin Scale       =       0.3333333333333333 [-]
	 SCS Opposite-Spin Scale   =       1.2000000000000000 [-]
	 SCS Same-Spin Energy      =      -0.0115369097451917 [Eh]
	 SCS Opposite-Spin Energy  =      -0.1342978738861954 [Eh]
	 SCS Correlation Energy    =      -0.1458347836313870 [Eh]
	 SCS Total Energy          =     -75.8816228557812877 [Eh]
	-----------------------------------------------------------

  -Total Gradient:
     Atom            X                  Y                   Z
    ------   -----------------  -----------------  -----------------
       1       -0.000000000000    -0.000000000000     0.001805630931
       2        0.000000000000    -0.000000000000     0.121355913337
       3        0.000000000000     0.000000000000    -0.123161544268

*** Psi4 exiting successfully. Buy a developer a beer!
