                               Psi4 1.2a1.dev429

  ==> Input File <==

--------------------------------------------------------------------------
# density-fitted hartree fock energies and gradients with 6-31g
molecule h2o {
0 1
O 0.0000000000 0.0000000000 0.0000000000
H 0.0000000000 0.0000000000 0.9000000000
H 0.0000000000 0.1910129954 -1.0832885283
}

set basis 6-31g

gradient('mp2')
--------------------------------------------------------------------------

    Molecular point group: cs
  Charge       = 0
  Multiplicity = 1
  Basis Set: 6-31G
    Blend: 6-31G
  Basis Set: (6-31G AUX)
    Blend: CC-PVDZ-JKFIT

    Orbital Energies (a.u.)
    -----------------------

    Doubly Occupied:

       1Ap   -20.505324     2Ap    -1.280242     3Ap    -0.732770
       4Ap    -0.459323     1App   -0.458721

  @DF-RHF Final Energy:   -75.91885230438707

   => Energetics <=

    Nuclear Repulsion Energy =              8.8179480523003093
    One-Electron Energy =                -122.6008398621479785
    Two-Electron Energy =                  37.8640395054606032
    Total Energy =                        -75.9188523043870589
  Basis Set: (6-31G AUX)
    Blend: CC-PVDZ-RI
    Molecular point group: cs

    Geometry (in Angstrom), charge = 0, multiplicity = 1:

       Center              X                  Y                   Z               Mass
    ------------   -----------------  -----------------  -----------------  -----------------
           O          0.010688597587    -0.010256356208     0.000000000000    15.994914619560
           H          0.010688597587    -0.910256356208     0.000000000000     1.007825032070
           H         -0.180324397813     1.073032172092     0.000000000000     1.007825032070

  Basis Set: 6-31G
    Blend: 6-31G
  Basis Set: (6-31G AUX)
    Blend: CC-PVDZ-JKFIT
  Basis Set: (6-31G AUX)
    Blend: CC-PVDZ-JKFIT
	 Reference Energy          =     -75.9188523043870731 [Eh]
	 Singles Energy            =      -0.0000000000000000 [Eh]
	 Same-Spin Energy          =      -0.0309639473721227 [Eh]
	 Opposite-Spin Energy      =      -0.0970033104621179 [Eh]
	 Correlation Energy        =      -0.1279672578342405 [Eh]
	 Total Energy              =     -76.0468195622213159 [Eh]

	 ================> DF-SCS-MP2 Energies <==================
	-----------------------------------------------------------
	 SCS Same-Spin Scale       =       0.3333333333333333 [-]
	 SCS Opposite-Spin Scale   =       1.2000000000000000 [-]
	 SCS Same-Spin Energy      =      -0.0103213157907076 [Eh]
	 SCS Opposite-Spin Energy  =      -0.1164039725545414 [Eh]
	 SCS Correlation Energy    =      -0.1267252883452490 [Eh]
	 SCS Total Energy          =     -76.0455775927323288 [Eh]
	-----------------------------------------------------------

  -Total Gradient:
     Atom            X                  Y                   Z
    ------   -----------------  -----------------  -----------------
       1       -0.010683804235    -0.182144689680     0.000000000000
       2        0.017237121246     0.063762472943    -0.000000000000
       3       -0.006553317011     0.118382216737    -0.000000000000

*** Psi4 exiting successfully. Buy a developer a beer!
