                               Psi4 1.2a1.dev429

  ==> Input File <==

--------------------------------------------------------------------------
# density-fitted hartree fock energies and gradients with 6-31g
molecule h20 {
0 1
O 0.0000000000 0.0000000000 0.0000000000
H 0.0000000000 0.0000000000 0.7000000000
H 0.0000000000 0.1389185421 -0.7878462024
}

set basis 6-31g

gradient('hf')
--------------------------------------------------------------------------

    Molecular point group: cs
  Charge       = 0
  Multiplicity = 1
  Basis Set: 6-31G
    Blend: 6-31G
  Basis Set: (6-31G AUX)
    Blend: CC-PVDZ-JKFIT

    Orbital Energies (a.u.)
    -----------------------

    Doubly Occupied:

       1Ap   -20.494200     2Ap    -1.428711     3Ap    -0.944720
       4Ap    -0.508789     1App   -0.507448

  @DF-RHF Final Energy:   -75.80838059099710

   => Energetics <=

    Nuclear Repulsion Energy =             11.6936379756660997
    One-Electron Energy =                -127.2363013764814355
    Two-Electron Energy =                  39.7342828098182395
    Total Energy =                        -75.8083805909971034
    Molecular point group: cs

    Geometry (in Angstrom), charge = 0, multiplicity = 1:

       Center              X                  Y                   Z               Mass
    ------------   -----------------  -----------------  -----------------  -----------------
           O          0.007773525517    -0.004915648305     0.000000000000    15.994914619560
           H          0.007773525517    -0.704915648305     0.000000000000     1.007825032070
           H         -0.131145016583     0.782930554095     0.000000000000     1.007825032070

  Basis Set: 6-31G
    Blend: 6-31G
  Basis Set: (6-31G AUX)
    Blend: CC-PVDZ-JKFIT

  -Total Gradient:
     Atom            X                  Y                   Z
    ------   -----------------  -----------------  -----------------
       1       -0.065280843087    -0.454948932432     0.000000000000
       2        0.011620724867     0.700714633180     0.000000000000
       3        0.053660118220    -0.245765700748     0.000000000000

*** Psi4 exiting successfully. Buy a developer a beer!
