                               Psi4 1.2a1.dev429

  ==> Input File <==

--------------------------------------------------------------------------
# density-fitted hartree fock energies and gradients with 6-31g
molecule h2o {
0 1
O 0.0000000000 0.0000000000 0.0000000000
H 0.0000000000 0.0000000000 1.1000000000
H 0.0000000000 0.2604722665 -1.4772116295
}

set basis 6-31g

gradient('mp2')
--------------------------------------------------------------------------

    Molecular point group: cs
  Charge       = 0
  Multiplicity = 1
  Basis Set: 6-31G
    Blend: 6-31G
  Basis Set: (6-31G AUX)
    Blend: CC-PVDZ-JKFIT

    Orbital Energies (a.u.)
    -----------------------

    Doubly Occupied:

       1Ap   -20.507496     2Ap    -1.176449     3Ap    -0.564373
       1App   -0.419797     4Ap    -0.414804

  @DF-RHF Final Energy:   -75.78620128155559

   => Energetics <=

    Nuclear Repulsion Energy =              6.8751286046044111
    One-Electron Energy =                -119.1568198873620048
    Two-Electron Energy =                  36.4954900012019863
    Total Energy =                        -75.7862012815556056
  Basis Set: (6-31G AUX)
    Blend: CC-PVDZ-RI
    Molecular point group: cs

    Geometry (in Angstrom), charge = 0, multiplicity = 1:

       Center              X                  Y                   Z               Mass
    ------------   -----------------  -----------------  -----------------  -----------------
           O          0.014575360348    -0.021107795856     0.000000000000    15.994914619560
           H          0.014575360348    -1.121107795856     0.000000000000     1.007825032070
           H         -0.245896906152     1.456103833644     0.000000000000     1.007825032070

  Basis Set: 6-31G
    Blend: 6-31G
  Basis Set: (6-31G AUX)
    Blend: CC-PVDZ-JKFIT
  Basis Set: (6-31G AUX)
    Blend: CC-PVDZ-JKFIT
	 Reference Energy          =     -75.7862012815555914 [Eh]
	 Singles Energy            =      -0.0000000000000000 [Eh]
	 Same-Spin Energy          =      -0.0345990631854048 [Eh]
	 Opposite-Spin Energy      =      -0.1111254765047321 [Eh]
	 Correlation Energy        =      -0.1457245396901369 [Eh]
	 Total Energy              =     -75.9319258212457271 [Eh]

	 ================> DF-SCS-MP2 Energies <==================
	-----------------------------------------------------------
	 SCS Same-Spin Scale       =       0.3333333333333333 [-]
	 SCS Opposite-Spin Scale   =       1.2000000000000000 [-]
	 SCS Same-Spin Energy      =      -0.0115330210618016 [Eh]
	 SCS Opposite-Spin Energy  =      -0.1333505718056786 [Eh]
	 SCS Correlation Energy    =      -0.1448835928674802 [Eh]
	 SCS Total Energy          =     -75.9310848744230782 [Eh]
	-----------------------------------------------------------

  -Total Gradient:
     Atom            X                  Y                   Z
    ------   -----------------  -----------------  -----------------
       1       -0.041220048713    -0.038779064912    -0.000000000000
       2        0.036332945201    -0.086942390892    -0.000000000000
       3        0.004887103512     0.125721455804     0.000000000000

*** Psi4 exiting successfully. Buy a developer a beer!
