                               Psi4 1.2a1.dev429

  ==> Input File <==

--------------------------------------------------------------------------
# density-fitted hartree fock energies and gradients with 6-31g
molecule h2o {
0 1
O 0.0000000000 0.0000000000 0.0000000000
H 0.0000000000 0.0000000000 1.4000000000
H 0.0000000000 0.9526279442 -0.5500000000
}

set basis 6-31g

gradient('mp2')
--------------------------------------------------------------------------

    Molecular point group: cs
  Charge       = 0
  Multiplicity = 1
  Basis Set: 6-31G
    Blend: 6-31G
  Basis Set: (6-31G AUX)
    Blend: CC-PVDZ-JKFIT

    Orbital Energies (a.u.)
    -----------------------

    Doubly Occupied:

       1Ap   -20.594177     2Ap    -1.248323     3Ap    -0.599658
       1App   -0.484941     4Ap    -0.483878

  @DF-RHF Final Energy:   -75.87420381811629

   => Energetics <=

    Nuclear Repulsion Energy =              7.1162632671254311
    One-Electron Energy =                -119.1589793749894852
    Two-Electron Energy =                  36.1685122897477740
    Total Energy =                        -75.8742038181162854
  Basis Set: (6-31G AUX)
    Blend: CC-PVDZ-RI
    Molecular point group: cs

    Geometry (in Angstrom), charge = 0, multiplicity = 1:

       Center              X                  Y                   Z               Mass
    ------------   -----------------  -----------------  -----------------  -----------------
           O          0.053306617825     0.047563821141     0.000000000000    15.994914619560
           H          0.053306617825    -1.352436178859     0.000000000000     1.007825032070
           H         -0.899321326375     0.597563821141     0.000000000000     1.007825032070

  Basis Set: 6-31G
    Blend: 6-31G
  Basis Set: (6-31G AUX)
    Blend: CC-PVDZ-JKFIT
  Basis Set: (6-31G AUX)
    Blend: CC-PVDZ-JKFIT
	 Reference Energy          =     -75.8742038181162854 [Eh]
	 Singles Energy            =      -0.0000000000000000 [Eh]
	 Same-Spin Energy          =      -0.0350929154513250 [Eh]
	 Opposite-Spin Energy      =      -0.1191156431593354 [Eh]
	 Correlation Energy        =      -0.1542085586106604 [Eh]
	 Total Energy              =     -76.0284123767269477 [Eh]

	 ================> DF-SCS-MP2 Energies <==================
	-----------------------------------------------------------
	 SCS Same-Spin Scale       =       0.3333333333333333 [-]
	 SCS Opposite-Spin Scale   =       1.2000000000000000 [-]
	 SCS Same-Spin Energy      =      -0.0116976384837750 [Eh]
	 SCS Opposite-Spin Energy  =      -0.1429387717912025 [Eh]
	 SCS Correlation Energy    =      -0.1546364102749775 [Eh]
	 SCS Total Energy          =     -76.0288402283912603 [Eh]
	-----------------------------------------------------------

  -Total Gradient:
     Atom            X                  Y                   Z
    ------   -----------------  -----------------  -----------------
       1        0.026048121056     0.050726238214    -0.000000000000
       2        0.021024739005    -0.108802120760    -0.000000000000
       3       -0.047072860061     0.058075882545     0.000000000000

*** Psi4 exiting successfully. Buy a developer a beer!
