                               Psi4 1.2a1.dev429

  ==> Input File <==

--------------------------------------------------------------------------
# density-fitted hartree fock energies and gradients with 6-31g
molecule h2o {
0 1
O 0.0000000000 0.0000000000 0.0000000000
H 0.0000000000 0.0000000000 1.5000000000
H 0.0000000000 1.3787308542 -0.2431074487
}

set basis 6-31g

gradient('mp2')
--------------------------------------------------------------------------

    Molecular point group: cs
  Charge       = 0
  Multiplicity = 1
  Basis Set: 6-31G
    Blend: 6-31G
  Basis Set: (6-31G AUX)
    Blend: CC-PVDZ-JKFIT

    Orbital Energies (a.u.)
    -----------------------

    Doubly Occupied:

       1Ap   -20.644403     2Ap    -1.224477     3Ap    -0.520923
       1App   -0.502278     4Ap    -0.487589

  @DF-RHF Final Energy:   -75.79089149285102

   => Energetics <=

    Nuclear Repulsion Energy =              6.0842526231046348
    One-Electron Energy =                -116.9909458185565541
    Two-Electron Energy =                  35.1158017026009048
    Total Energy =                        -75.7908914928510171
  Basis Set: (6-31G AUX)
    Blend: CC-PVDZ-RI
    Molecular point group: cs

    Geometry (in Angstrom), charge = 0, multiplicity = 1:

       Center              X                  Y                   Z               Mass
    ------------   -----------------  -----------------  -----------------  -----------------
           O          0.077150244412     0.070332485298     0.000000000000    15.994914619560
           H          0.077150244412    -1.429667514702     0.000000000000     1.007825032070
           H         -1.301580609788     0.313439933998     0.000000000000     1.007825032070

  Basis Set: 6-31G
    Blend: 6-31G
  Basis Set: (6-31G AUX)
    Blend: CC-PVDZ-JKFIT
  Basis Set: (6-31G AUX)
    Blend: CC-PVDZ-JKFIT
	 Reference Energy          =     -75.7908914928510171 [Eh]
	 Singles Energy            =      -0.0000000000000000 [Eh]
	 Same-Spin Energy          =      -0.0398918702382558 [Eh]
	 Opposite-Spin Energy      =      -0.1402684410004288 [Eh]
	 Correlation Energy        =      -0.1801603112386846 [Eh]
	 Total Energy              =     -75.9710518040896972 [Eh]

	 ================> DF-SCS-MP2 Energies <==================
	-----------------------------------------------------------
	 SCS Same-Spin Scale       =       0.3333333333333333 [-]
	 SCS Opposite-Spin Scale   =       1.2000000000000000 [-]
	 SCS Same-Spin Energy      =      -0.0132972900794186 [Eh]
	 SCS Opposite-Spin Energy  =      -0.1683221292005146 [Eh]
	 SCS Correlation Energy    =      -0.1816194192799332 [Eh]
	 SCS Total Energy          =     -75.9725109121309572 [Eh]
	-----------------------------------------------------------

  -Total Gradient:
     Atom            X                  Y                   Z
    ------   -----------------  -----------------  -----------------
       1        0.084895872510     0.068682979868     0.000000000000
       2        0.008071745030    -0.093857394984    -0.000000000000
       3       -0.092967617540     0.025174415115    -0.000000000000

*** Psi4 exiting successfully. Buy a developer a beer!
