                               Psi4 1.2a1.dev429

  ==> Input File <==

--------------------------------------------------------------------------
# density-fitted hartree fock energies and gradients with 6-31g
molecule h20 {
0 1
O 0.0000000000 0.0000000000 0.0000000000
H 0.0000000000 0.0000000000 1.4000000000
H 0.0000000000 0.4446261863 -1.2216004070
}

set basis 6-31g

gradient('hf')
--------------------------------------------------------------------------

    Molecular point group: cs
  Charge       = 0
  Multiplicity = 1
  Basis Set: 6-31G
    Blend: 6-31G
  Basis Set: (6-31G AUX)
    Blend: CC-PVDZ-JKFIT

    Orbital Energies (a.u.)
    -----------------------

    Doubly Occupied:

       1Ap   -20.539646     2Ap    -1.170455     3Ap    -0.546025
       1App   -0.434822     4Ap    -0.423274

  @DF-RHF Final Energy:   -75.77755163524249

   => Energetics <=

    Nuclear Repulsion Energy =              6.4793556939036314
    One-Electron Energy =                -118.2853692078320336
    Two-Electron Energy =                  36.0284618786859170
    Total Energy =                        -75.7775516352424887
    Molecular point group: cs

    Geometry (in Angstrom), charge = 0, multiplicity = 1:

       Center              X                  Y                   Z               Mass
    ------------   -----------------  -----------------  -----------------  -----------------
           O          0.024880141647     0.009982783921     0.000000000000    15.994914619560
           H          0.024880141647    -1.390017216079     0.000000000000     1.007825032070
           H         -0.419746044653     1.231583190921     0.000000000000     1.007825032070

  Basis Set: 6-31G
    Blend: 6-31G
  Basis Set: (6-31G AUX)
    Blend: CC-PVDZ-JKFIT

  -Total Gradient:
     Atom            X                  Y                   Z
    ------   -----------------  -----------------  -----------------
       1       -0.012598713415    -0.000135050529     0.000000000000
       2        0.028737781885    -0.134693684254     0.000000000000
       3       -0.016139068471     0.134828734783     0.000000000000

*** Psi4 exiting successfully. Buy a developer a beer!
