                               Psi4 1.3.1 release

  ==> Input File <==

--------------------------------------------------------------------------
# density fitted MP2
molecule h2o {
0 1
H 0.0000000000 0.0000000000 1.1125000000
H 0.0000000000 0.9055554621 -0.2426428548
O 0.0000000000 0.0000000000 0.0000000000
}

set basis 6-31g
energy('mp2')

--------------------------------------------------------------------------

    Molecular point group: cs

    Geometry (in Angstrom), charge = 0, multiplicity = 1:

       Center              X                  Y                   Z               Mass
    ------------   -----------------  -----------------  -----------------  -----------------
         H            0.050672562398    -1.063825023908     0.000000000000     1.007825032230
         H           -0.854882899702     0.291317830892     0.000000000000     1.007825032230
         O            0.050672562398     0.048674976092     0.000000000000    15.994914619570

  Charge       = 0
  Multiplicity = 1
  Basis Set: 6-31G
    Blend: 6-31G
  Basis Set: (6-31G AUX)
    Blend: CC-PVDZ-JKFIT

    Orbital Energies [Eh]
    ---------------------

    Doubly Occupied:

       1Ap   -20.572493     2Ap    -1.329678     3Ap    -0.677468
       4Ap    -0.547179     1App   -0.498597

  @DF-RHF Final Energy:   -75.96547352261086

   => Energetics <=

    Nuclear Repulsion Energy =              8.6456413277280362
    One-Electron Energy =                -121.9713995879754833
    Two-Electron Energy =                  37.3602847376365901
    Total Energy =                        -75.9654735226108642

  Dipole Moment: [D]
     X:    -2.0566      Y:    -1.6504      Z:     0.0000     Total:     2.6369

  Basis Set: (6-31G AUX)
    Blend: CC-PVDZ-RI
	 Reference Energy          =     -75.9654735226108642 [Eh]
	 Singles Energy            =      -0.0000000000000000 [Eh]
	 Same-Spin Energy          =      -0.0313778515024825 [Eh]
	 Opposite-Spin Energy      =      -0.1033064018993818 [Eh]
	 Correlation Energy        =      -0.1346842534018643 [Eh]
	 Total Energy              =     -76.1001577760127219 [Eh]

	 ================> DF-SCS-MP2 Energies <==================
	-----------------------------------------------------------
	 SCS Same-Spin Scale       =       0.3333333333333333 [-]
	 SCS Opposite-Spin Scale   =       1.2000000000000000 [-]
	 SCS Same-Spin Energy      =      -0.0104592838341608 [Eh]
	 SCS Opposite-Spin Energy  =      -0.1239676822792582 [Eh]
	 SCS Correlation Energy    =      -0.1344269661134190 [Eh]
	 SCS Total Energy          =     -76.0999004887242876 [Eh]
	-----------------------------------------------------------

*** Psi4 exiting successfully. Buy a developer a beer!
