                               Psi4 1.2a1.dev429

  ==> Input File <==

--------------------------------------------------------------------------
# density-fitted hartree fock energies and gradients with 6-31g
molecule h20 {
0 1
O 0.0000000000 0.0000000000 0.0000000000
H 0.0000000000 0.0000000000 1.3000000000
H 0.0000000000 0.6893654271 -0.1215537244
}

set basis 6-31g

gradient('hf')
--------------------------------------------------------------------------

    Molecular point group: cs
  Charge       = 0
  Multiplicity = 1
  Basis Set: 6-31G
    Blend: 6-31G
  Basis Set: (6-31G AUX)
    Blend: CC-PVDZ-JKFIT

    Orbital Energies (a.u.)
    -----------------------

    Doubly Occupied:

       1Ap   -20.566290     2Ap    -1.426070     3Ap    -0.704422
       4Ap    -0.538668     1App   -0.509202

  @DF-RHF Final Energy:   -75.78996152196794

   => Energetics <=

    Nuclear Repulsion Energy =              9.6391611134996413
    One-Electron Energy =                -123.3689424499107616
    Two-Electron Energy =                  37.9398198144431973
    Total Energy =                        -75.7899615219679248
    Molecular point group: cs

    Geometry (in Angstrom), charge = 0, multiplicity = 1:

       Center              X                  Y                   Z               Mass
    ------------   -----------------  -----------------  -----------------  -----------------
           O          0.038575122206     0.065942832796     0.000000000000    15.994914619560
           H          0.038575122206    -1.234057167204     0.000000000000     1.007825032070
           H         -0.650790304894     0.187496557196     0.000000000000     1.007825032070

  Basis Set: 6-31G
    Blend: 6-31G
  Basis Set: (6-31G AUX)
    Blend: CC-PVDZ-JKFIT

  -Total Gradient:
     Atom            X                  Y                   Z
    ------   -----------------  -----------------  -----------------
       1       -0.726244194526     0.277011132609     0.000000000000
       2       -0.008022323608    -0.132411696868     0.000000000000
       3        0.734266518134    -0.144599435740     0.000000000000

*** Psi4 exiting successfully. Buy a developer a beer!
