                               Psi4 1.2a1.dev429

  ==> Input File <==

--------------------------------------------------------------------------
# density-fitted hartree fock energies and gradients with 6-31g
molecule o2 {
0 3
O 0.0000000000 0.0000000000 0.0000000000
O 0.0000000000 0.0000000000 1.4717171717
}

set basis 6-31g
set reference rohf

gradient('scf')
--------------------------------------------------------------------------

    Molecular point group: d2h
  Charge       = 0
  Multiplicity = 3
  Basis Set: 6-31G
    Blend: 6-31G
  Basis Set: (6-31G AUX)
    Blend: CC-PVDZ-JKFIT

    Orbital Energies (a.u.)
    -----------------------

    Doubly Occupied:

       1Ag   -20.786096     1B1u  -20.785697     2Ag    -1.495717
       2B1u   -1.183381     3Ag    -0.648967     1B2u   -0.631705
       1B3u   -0.631705

    Singly Occupied:

       1B3g   -0.308042     1B2g   -0.308042

  @DF-ROHF Final Energy:  -149.45181646470957

   => Energetics <=

    Nuclear Repulsion Energy =             23.0121262434135900
    One-Electron Energy =                -251.3656404407857394
    Two-Electron Energy =                  78.9016977326625693
    Total Energy =                       -149.4518164647095659
    Molecular point group: d2h

    Geometry (in Angstrom), charge = 0, multiplicity = 3:

       Center              X                  Y                   Z               Mass
    ------------   -----------------  -----------------  -----------------  -----------------
           O          0.000000000000     0.000000000000    -0.735858585850    15.994914619560
           O          0.000000000000     0.000000000000     0.735858585850    15.994914619560

  Basis Set: 6-31G
    Blend: 6-31G
  Basis Set: (6-31G AUX)
    Blend: CC-PVDZ-JKFIT

  -Total Gradient:
     Atom            X                  Y                   Z
    ------   -----------------  -----------------  -----------------
       1        0.000000000000     0.000000000000    -0.213995477151
       2        0.000000000000    -0.000000000000     0.213995477151

*** Psi4 exiting successfully. Buy a developer a beer!
