                               Psi4 1.2a1.dev429

  ==> Input File <==

--------------------------------------------------------------------------
# density-fitted hartree fock energies and gradients with 6-31g
molecule h20 {
0 1
O 0.0000000000 0.0000000000 0.0000000000
O 0.0000000000 0.0000000000 1.4717171717
}

set basis 6-31g

gradient('hf')
--------------------------------------------------------------------------

    Molecular point group: d2h
  Charge       = 0
  Multiplicity = 1
  Basis Set: 6-31G
    Blend: 6-31G
  Basis Set: (6-31G AUX)
    Blend: CC-PVDZ-JKFIT

    Orbital Energies (a.u.)
    -----------------------

    Doubly Occupied:

       1Ag   -20.794115     1B1u  -20.793712     2Ag    -1.499396
       2B1u   -1.186963     1B3u   -0.710993     3Ag    -0.652558
       1B2u   -0.561107     1B2g   -0.556742

  @DF-RHF Final Energy:  -149.38917300813097

   => Energetics <=

    Nuclear Repulsion Energy =             23.0121262434135900
    One-Electron Energy =                -251.2914251769445286
    Two-Electron Energy =                  78.8901259253999569
    Total Energy =                       -149.3891730081309674
    Molecular point group: d2h

    Geometry (in Angstrom), charge = 0, multiplicity = 1:

       Center              X                  Y                   Z               Mass
    ------------   -----------------  -----------------  -----------------  -----------------
           O          0.000000000000     0.000000000000    -0.735858585850    15.994914619560
           O          0.000000000000     0.000000000000     0.735858585850    15.994914619560

  Basis Set: 6-31G
    Blend: 6-31G
  Basis Set: (6-31G AUX)
    Blend: CC-PVDZ-JKFIT

  -Total Gradient:
     Atom            X                  Y                   Z
    ------   -----------------  -----------------  -----------------
       1       -0.000000000000     0.000000000000    -0.207237854807
       2        0.000000000000     0.000000000000     0.207237854807

*** Psi4 exiting successfully. Buy a developer a beer!
