                               Psi4 1.2a1.dev429

  ==> Input File <==

--------------------------------------------------------------------------
# density-fitted hartree fock energies and gradients with 6-31g
molecule h20 {
0 1
O 0.0000000000 0.0000000000 0.0000000000
H 0.0000000000 0.0000000000 1.0000000000
H 0.0000000000 0.4499513268 -0.5362311102
}

set basis 6-31g

gradient('hf')
--------------------------------------------------------------------------

    Molecular point group: cs
  Charge       = 0
  Multiplicity = 1
  Basis Set: 6-31G
    Blend: 6-31G
  Basis Set: (6-31G AUX)
    Blend: CC-PVDZ-JKFIT

    Orbital Energies (a.u.)
    -----------------------

    Doubly Occupied:

       1Ap   -20.514376     2Ap    -1.409133     3Ap    -0.826477
       4Ap    -0.514351     1App   -0.496290

  @DF-RHF Final Energy:   -75.84445190418194

   => Energetics <=

    Nuclear Repulsion Energy =             10.6117340136256608
    One-Electron Energy =                -125.3911156843714849
    Two-Electron Energy =                  38.9349297665638971
    Total Energy =                        -75.8444519041819234
    Molecular point group: cs

    Geometry (in Angstrom), charge = 0, multiplicity = 1:

       Center              X                  Y                   Z               Mass
    ------------   -----------------  -----------------  -----------------  -----------------
           O          0.025178122859     0.025951318265     0.000000000000    15.994914619560
           H          0.025178122859    -0.974048681735     0.000000000000     1.007825032070
           H         -0.424773203941     0.562182428465     0.000000000000     1.007825032070

  Basis Set: 6-31G
    Blend: 6-31G
  Basis Set: (6-31G AUX)
    Blend: CC-PVDZ-JKFIT

  -Total Gradient:
     Atom            X                  Y                   Z
    ------   -----------------  -----------------  -----------------
       1       -0.513010895782     0.608283895130     0.000000000000
       2        0.022989762981    -0.075393339028     0.000000000000
       3        0.490021132801    -0.532890556102     0.000000000000

*** Psi4 exiting successfully. Buy a developer a beer!
