                               Psi4 1.2a1.dev429

  ==> Input File <==

--------------------------------------------------------------------------
# density-fitted hartree fock energies and gradients with 6-31g
molecule h20 {
0 1
O 0.0000000000 0.0000000000 0.0000000000
O 0.0000000000 0.0000000000 0.9979797980
}

set basis 6-31g

gradient('hf')
--------------------------------------------------------------------------

    Molecular point group: d2h
  Charge       = 0
  Multiplicity = 1
  Basis Set: 6-31G
    Blend: 6-31G
  Basis Set: (6-31G AUX)
    Blend: CC-PVDZ-JKFIT

    Orbital Energies (a.u.)
    -----------------------

    Doubly Occupied:

       1Ag   -20.723995     1B1u  -20.721365     2Ag    -1.945732
       2B1u   -1.022969     1B2u   -0.883843     3Ag    -0.788379
       1B3u   -0.779841     1B3g   -0.384712

  @DF-RHF Final Energy:  -149.35392119369388

   => Energetics <=

    Nuclear Repulsion Energy =             33.9358987202263975
    One-Electron Energy =                -272.0779673330075639
    Two-Electron Energy =                  88.7881474190872666
    Total Energy =                       -149.3539211936939068
    Molecular point group: d2h

    Geometry (in Angstrom), charge = 0, multiplicity = 1:

       Center              X                  Y                   Z               Mass
    ------------   -----------------  -----------------  -----------------  -----------------
           O          0.000000000000     0.000000000000    -0.498989899000    15.994914619560
           O          0.000000000000     0.000000000000     0.498989899000    15.994914619560

  Basis Set: 6-31G
    Blend: 6-31G
  Basis Set: (6-31G AUX)
    Blend: CC-PVDZ-JKFIT

  -Total Gradient:
     Atom            X                  Y                   Z
    ------   -----------------  -----------------  -----------------
       1        0.000000000000     0.000000000000     0.745410093347
       2        0.000000000000    -0.000000000000    -0.745410093347

*** Psi4 exiting successfully. Buy a developer a beer!
