                               Psi4 1.2a1.dev429

  ==> Input File <==

--------------------------------------------------------------------------
# density-fitted hartree fock energies and gradients with 6-31g
molecule o2 {
0 3
O 0.0000000000 0.0000000000 0.0000000000
O 0.0000000000 0.0000000000 0.9979797980
}

set basis 6-31g
set reference rohf

gradient('scf')
--------------------------------------------------------------------------

    Molecular point group: d2h
  Charge       = 0
  Multiplicity = 3
  Basis Set: 6-31G
    Blend: 6-31G
  Basis Set: (6-31G AUX)
    Blend: CC-PVDZ-JKFIT

    Orbital Energies (a.u.)
    -----------------------

    Doubly Occupied:

       1Ag   -20.712683     1B1u  -20.710072     2Ag    -1.938709
       2B1u   -1.018201     1B3u   -0.826528     1B2u   -0.826528
       3Ag    -0.783230

    Singly Occupied:

       1B3g   -0.121383     1B2g   -0.121383

  @DF-ROHF Final Energy:  -149.42315379376441

   => Energetics <=

    Nuclear Repulsion Energy =             33.9358987202263975
    One-Electron Energy =                -272.1820707520525957
    Two-Electron Energy =                  88.8230182380617919
    Total Energy =                       -149.4231537937644134
    Molecular point group: d2h

    Geometry (in Angstrom), charge = 0, multiplicity = 3:

       Center              X                  Y                   Z               Mass
    ------------   -----------------  -----------------  -----------------  -----------------
           O          0.000000000000     0.000000000000    -0.498989899000    15.994914619560
           O          0.000000000000     0.000000000000     0.498989899000    15.994914619560

  Basis Set: 6-31G
    Blend: 6-31G
  Basis Set: (6-31G AUX)
    Blend: CC-PVDZ-JKFIT

  -Total Gradient:
     Atom            X                  Y                   Z
    ------   -----------------  -----------------  -----------------
       1        0.000000000000     0.000000000000     0.740976405964
       2        0.000000000000    -0.000000000000    -0.740976405964

*** Psi4 exiting successfully. Buy a developer a beer!
