                               Psi4 1.2a1.dev429

  ==> Input File <==

--------------------------------------------------------------------------
# density-fitted hartree fock energies and gradients with 6-31g
molecule o2 {
0 3
O 0.0000000000 0.0000000000 0.0000000000
O 0.0000000000 0.0000000000 1.2000000000
}

set basis 6-31g
set reference rohf

energy('scf')
--------------------------------------------------------------------------

    Molecular point group: d2h

    Geometry (in Angstrom), charge = 0, multiplicity = 3:

       Center              X                  Y                   Z               Mass
    ------------   -----------------  -----------------  -----------------  -----------------
           O          0.000000000000     0.000000000000    -0.600000000000    15.994914619560
           O          0.000000000000     0.000000000000     0.600000000000    15.994914619560

  Charge       = 0
  Multiplicity = 3
  Basis Set: 6-31G
    Blend: 6-31G
  Basis Set: (6-31G AUX)
    Blend: CC-PVDZ-JKFIT

    Orbital Energies (a.u.)
    -----------------------

    Doubly Occupied:

       1Ag   -20.747158     1B1u  -20.746298     2Ag    -1.697488
       2B1u   -1.098297     3Ag    -0.725870     1B3u   -0.718951
       1B2u   -0.718951

    Singly Occupied:

       1B2g   -0.226188     1B3g   -0.226188

  @DF-ROHF Final Energy:  -149.52811777870289

   => Energetics <=

    Nuclear Repulsion Energy =             28.2227844581333365
    One-Electron Energy =                -261.4957964704088909
    Two-Electron Energy =                  83.7448942335726798
    Total Energy =                       -149.5281177787028923
*** Psi4 exiting successfully. Buy a developer a beer!
