                               Psi4 1.2a1.dev429

  ==> Input File <==

--------------------------------------------------------------------------
# density-fitted hartree fock energies and gradients with 6-31g
molecule h20 {
0 1
O 0.0000000000 0.0000000000 0.0000000000
H 0.0000000000 0.0000000000 1.0000000000
H 0.0000000000 0.8999026536 -1.0724622204
}

set basis 6-31g

gradient('hf')
--------------------------------------------------------------------------

    Molecular point group: cs
  Charge       = 0
  Multiplicity = 1
  Basis Set: 6-31G
    Blend: 6-31G
  Basis Set: (6-31G AUX)
    Blend: CC-PVDZ-JKFIT

    Orbital Energies (a.u.)
    -----------------------

    Doubly Occupied:

       1Ap   -20.555070     2Ap    -1.248519     3Ap    -0.625543
       1App   -0.465514     4Ap    -0.458374

  @DF-RHF Final Energy:   -75.86568973557009

   => Energetics <=

    Nuclear Repulsion Energy =              7.4914979916479671
    One-Electron Energy =                -120.0083381492587193
    Two-Electron Energy =                  36.6511504220406721
    Total Energy =                        -75.8656897355700863
    Molecular point group: cs

    Geometry (in Angstrom), charge = 0, multiplicity = 1:

       Center              X                  Y                   Z               Mass
    ------------   -----------------  -----------------  -----------------  -----------------
           O          0.050356245718    -0.004054800107     0.000000000000    15.994914619560
           H          0.050356245718    -1.004054800107     0.000000000000     1.007825032070
           H         -0.849546407882     1.068407420293     0.000000000000     1.007825032070

  Basis Set: 6-31G
    Blend: 6-31G
  Basis Set: (6-31G AUX)
    Blend: CC-PVDZ-JKFIT

  -Total Gradient:
     Atom            X                  Y                   Z
    ------   -----------------  -----------------  -----------------
       1        0.028210577204    -0.082010053088     0.000000000000
       2        0.040355926519    -0.044549092669     0.000000000000
       3       -0.068566503724     0.126559145756     0.000000000000

*** Psi4 exiting successfully. Buy a developer a beer!
