                               Psi4 1.3.1 release

  ==> Input File <==

--------------------------------------------------------------------------
# density fitted hartree fock
molecule h2o {
0 1
H 0.0000000000 0.0000000000 1.0500000000
H 0.0000000000 1.0000000000 0.0000000000
O 0.0000000000 0.0000000000 0.0000000000
}

set basis 6-31g
energy('hf')

--------------------------------------------------------------------------

    Molecular point group: cs

    Geometry (in Angstrom), charge = 0, multiplicity = 1:

       Center              X                  Y                   Z               Mass
    ------------   -----------------  -----------------  -----------------  -----------------
         H            0.055957436644    -0.991244691524     0.000000000000     1.007825032230
         H           -0.944042563356     0.058755308476     0.000000000000     1.007825032230
         O            0.055957436644     0.058755308476     0.000000000000    15.994914619570

  Charge       = 0
  Multiplicity = 1
  Basis Set: 6-31G
    Blend: 6-31G
  Basis Set: (6-31G AUX)
    Blend: CC-PVDZ-JKFIT

    Orbital Energies [Eh]
    ---------------------

    Doubly Occupied:

       1Ap   -20.584404     2Ap    -1.338980     3Ap    -0.650327
       4Ap    -0.578111     1App   -0.505890

  @DF-RHF Final Energy:   -75.96510621669651

   => Energetics <=

    Nuclear Repulsion Energy =              8.6301938528315922
    One-Electron Energy =                -121.8751928935438968
    Two-Electron Energy =                  37.2798928240158034
    Total Energy =                        -75.9651062166964977

  Dipole Moment: [D]
     X:    -2.0353      Y:    -2.0243      Z:     0.0000     Total:     2.8706

*** Psi4 exiting successfully. Buy a developer a beer!
