                               Psi4 1.3.1 release

  ==> Input File <==

--------------------------------------------------------------------------
# density fitted hartree fock
molecule h2o {
0 1
H 0.0000000000 0.0000000000 1.2000000000
H 0.0000000000 1.1125000000 0.0000000000
O 0.0000000000 0.0000000000 0.0000000000
}

set basis 6-31g
energy('hf')

--------------------------------------------------------------------------

    Molecular point group: cs

    Geometry (in Angstrom), charge = 0, multiplicity = 1:

       Center              X                  Y                   Z               Mass
    ------------   -----------------  -----------------  -----------------  -----------------
         H            0.062252648266    -1.132851076027     0.000000000000     1.007825032230
         H           -1.050247351734     0.067148923973     0.000000000000     1.007825032230
         O            0.062252648266     0.067148923973     0.000000000000    15.994914619570

  Charge       = 0
  Multiplicity = 1
  Basis Set: 6-31G
    Blend: 6-31G
  Basis Set: (6-31G AUX)
    Blend: CC-PVDZ-JKFIT

    Orbital Energies [Eh]
    ---------------------

    Doubly Occupied:

       1Ap   -20.609697     2Ap    -1.288780     3Ap    -0.599504
       4Ap    -0.553856     1App   -0.504305

  @DF-RHF Final Energy:   -75.92447675049554

   => Energetics <=

    Nuclear Repulsion Energy =              7.6565552055450166
    One-Electron Energy =                -120.0497734488568113
    Two-Electron Energy =                  36.4687414928162568
    Total Energy =                        -75.9244767504955291

  Dipole Moment: [D]
     X:    -2.0503      Y:    -2.0013      Z:     0.0000     Total:     2.8651

*** Psi4 exiting successfully. Buy a developer a beer!
