                               Psi4 1.2a1.dev429

  ==> Input File <==

--------------------------------------------------------------------------
# density-fitted hartree fock energies and gradients with 6-31g
molecule h2o {
0 1
O 0.0000000000 0.0000000000 0.0000000000
H 0.0000000000 0.0000000000 1.2000000000
H 0.0000000000 0.8356238926 -0.9958577761
}

set basis 6-31g

gradient('mp2')
--------------------------------------------------------------------------

    Molecular point group: cs
  Charge       = 0
  Multiplicity = 1
  Basis Set: 6-31G
    Blend: 6-31G
  Basis Set: (6-31G AUX)
    Blend: CC-PVDZ-JKFIT

    Orbital Energies (a.u.)
    -----------------------

    Doubly Occupied:

       1Ap   -20.567831     2Ap    -1.217185     3Ap    -0.594162
       1App   -0.463906     4Ap    -0.458931

  @DF-RHF Final Energy:   -75.85585018744716

   => Energetics <=

    Nuclear Repulsion Energy =              7.0095547675231220
    One-Electron Energy =                -119.1267811310341074
    Two-Electron Energy =                  36.2613761760638198
    Total Energy =                        -75.8558501874471602
  Basis Set: (6-31G AUX)
    Blend: CC-PVDZ-RI
    Molecular point group: cs

    Geometry (in Angstrom), charge = 0, multiplicity = 1:

       Center              X                  Y                   Z               Mass
    ------------   -----------------  -----------------  -----------------  -----------------
           O          0.046759371022     0.011423275559     0.000000000000    15.994914619560
           H          0.046759371022    -1.188576724441     0.000000000000     1.007825032070
           H         -0.788864521578     1.007281051659     0.000000000000     1.007825032070

  Basis Set: 6-31G
    Blend: 6-31G
  Basis Set: (6-31G AUX)
    Blend: CC-PVDZ-JKFIT
  Basis Set: (6-31G AUX)
    Blend: CC-PVDZ-JKFIT
	 Reference Energy          =     -75.8558501874471602 [Eh]
	 Singles Energy            =      -0.0000000000000000 [Eh]
	 Same-Spin Energy          =      -0.0350152210215847 [Eh]
	 Opposite-Spin Energy      =      -0.1159764604748747 [Eh]
	 Correlation Energy        =      -0.1509916814964594 [Eh]
	 Total Energy              =     -76.0068418689436243 [Eh]

	 ================> DF-SCS-MP2 Energies <==================
	-----------------------------------------------------------
	 SCS Same-Spin Scale       =       0.3333333333333333 [-]
	 SCS Opposite-Spin Scale   =       1.2000000000000000 [-]
	 SCS Same-Spin Energy      =      -0.0116717403405282 [Eh]
	 SCS Opposite-Spin Energy  =      -0.1391717525698496 [Eh]
	 SCS Correlation Energy    =      -0.1508434929103778 [Eh]
	 SCS Total Energy          =     -76.0066936803575430 [Eh]
	-----------------------------------------------------------

  -Total Gradient:
     Atom            X                  Y                   Z
    ------   -----------------  -----------------  -----------------
       1        0.004617796687    -0.006689322358    -0.000000000000
       2        0.039357220871    -0.102237108564    -0.000000000000
       3       -0.043975017558     0.108926430922     0.000000000000

*** Psi4 exiting successfully. Buy a developer a beer!
