                               Psi4 1.2a1.dev429

  ==> Input File <==

--------------------------------------------------------------------------
# density-fitted MP2 energies and gradients with 6-31g

molecule h20 {
0 2
C 0.0000000000 0.0000000000 0.0000000000
H 0.0000000000 0.0000000000 1.7000000000
H 0.0000000000 0.8660254038 -0.5000000000
H 0.0000000000 -0.8660254038 -0.5000000000
}

set reference uhf
set basis 6-31g

gradient('mp2')
--------------------------------------------------------------------------

    Molecular point group: c1

    Geometry (in Angstrom), charge = 0, multiplicity = 2:

       Center              X                  Y                   Z               Mass
    ------------   -----------------  -----------------  -----------------  -----------------
           C          0.000000000000     0.000000000000    -0.046958344719    12.000000000000
           H          0.000000000000     0.000000000000     1.653041655281     1.007825032070
           H         -0.000000000000     0.866025403800    -0.546958344719     1.007825032070
           H          0.000000000000    -0.866025403800    -0.546958344719     1.007825032070

  Charge       = 0
  Multiplicity = 2
  Basis Set: 6-31G
    Blend: 6-31G
  Basis Set: (6-31G AUX)
    Blend: CC-PVDZ-JKFIT

    Orbital Energies (a.u.)
    -----------------------

    Alpha Occupied:

       1A    -11.265701     2A     -0.970525     3A     -0.626773
       4A     -0.475941     5A     -0.408268

    Alpha Virtual:

       6A      0.149408     7A      0.294707     8A      0.338228
       9A      0.710853    10A      0.727519    11A      0.774881
      12A      0.962700    13A      1.106153    14A      1.307818
      15A      1.326190

    Beta Occupied:

       1A    -11.225559     2A     -0.836162     3A     -0.593832
       4A     -0.467667

    Beta Virtual:

       5A      0.159428     6A      0.175125     7A      0.313263
       8A      0.361216     9A      0.727419    10A      0.821129
      11A      0.886433    12A      0.991783    13A      1.054492
      14A      1.334366    15A      1.350639

    Final Occupation by Irrep:
              A
    DOCC [     4 ]
    SOCC [     1 ]

  Energy converged.

  @DF-UHF Final Energy:   -39.44069998025400

   => Energetics <=

    Nuclear Repulsion Energy =              8.9709675955584061
    One-Electron Energy =                 -69.9529088440015698
    Two-Electron Energy =                  21.5412412681891610
    Total Energy =                        -39.4406999802540028

  UHF NO Occupations:
  HONO-2 :    3  A 1.9974558
  HONO-1 :    4  A 1.8209631
  HONO-0 :    5  A 1.0000000
  LUNO+0 :    6  A 0.1790369
  LUNO+1 :    7  A 0.0025442
  LUNO+2 :    8  A 0.0017350
  LUNO+3 :    9  A 0.0000006

Properties will be evaluated at   0.000000,   0.000000,   0.000000 Bohr

Properties computed using the SCF density matrix

  Nuclear Dipole Moment: (a.u.)
     X:     0.0000      Y:     0.0000      Z:     0.5242

  Electronic Dipole Moment: (a.u.)
     X:     0.0000      Y:     0.0000      Z:    -0.7534

  Dipole Moment: (a.u.)
     X:     0.0000      Y:     0.0000      Z:    -0.2293     Total:     0.2293

  Dipole Moment: (Debye)
     X:     0.0000      Y:     0.0000      Z:    -0.5827     Total:     0.5827

*** tstop() called on adabbott at Thu Apr 12 13:56:23 2018
Module time:
	user time   =       0.16 seconds =       0.00 minutes
	system time =       0.27 seconds =       0.00 minutes
	total time  =          0 seconds =       0.00 minutes
Total time:
	user time   =       0.16 seconds =       0.00 minutes
	system time =       0.27 seconds =       0.00 minutes
	total time  =          0 seconds =       0.00 minutes
   => Loading Basis Set <=

    Name: (6-31G AUX)
    Role: JKFIT
    Keyword: DF_BASIS_SCF
    atoms 1   entry C          line   121 file /home/adabbott/Git/psi4/objdir/stage/usr/local/psi4/share/psi4/basis/cc-pvdz-jkfit.gbs
    atoms 2-4 entry H          line    51 file /home/adabbott/Git/psi4/objdir/stage/usr/local/psi4/share/psi4/basis/cc-pvdz-jkfit.gbs

   => Loading Basis Set <=

    Name: (6-31G AUX)
    Role: RIFIT
    Keyword: DF_BASIS_CC
    atoms 1   entry C          line   159 file /home/adabbott/Git/psi4/objdir/stage/usr/local/psi4/share/psi4/basis/cc-pvdz-ri.gbs
    atoms 2-4 entry H          line    19 file /home/adabbott/Git/psi4/objdir/stage/usr/local/psi4/share/psi4/basis/cc-pvdz-ri.gbs

*** tstart() called on adabbott
*** at Thu Apr 12 13:56:23 2018

  Options:
  ----------------------------------------------------------------------------
  ACTIVE                      => [  ]
  BASIS_RELATIVISTIC          => (empty)
  BENCH                       => 0
  CC_DIIS_MAX_VECS            => 6
  CC_DIIS_MIN_VECS            => 2
  CC_LAMBDA                   => FALSE
  CC_MAXITER                  => 50
  CC_TYPE                     => CONV
  CHOLESKY                    => FALSE
  CHOLESKY_TOLERANCE          => 0.0001
  CI_TYPE                     => CONV
  COMPUT_S2                   => FALSE
  CUBEPROP_BASIS_FUNCTIONS    => [  ]
  CUBEPROP_FILEPATH           => .
  CUBEPROP_ORBITALS           => [  ]
  CUBEPROP_TASKS              => [  ]
  CUBIC_BASIS_TOLERANCE       => 1e-12
  CUBIC_BLOCK_MAX_POINTS      => 1000
  CUBIC_GRID_OVERAGE          => [  ]
  CUBIC_GRID_SPACING          => [  ]
  CUTOFF                      => 8
  DEBUG                       => 0
  DERTYPE                     => FIRST           !
  DF_BASIS_CC                 => (empty)
  DIE_IF_NOT_CONVERGED        => TRUE
  DKH_ORDER                   => 2
  DOCC                        => [  ]
  DO_DIIS                     => TRUE
  DO_LEVEL_SHIFT              => TRUE
  DO_SCS                      => FALSE           !
  DO_SOS                      => FALSE           !
  E3_SCALE                    => 0.25
  EKT_IP                      => FALSE
  EXTERNAL_POTENTIAL_SYMMETRY => FALSE
  E_CONVERGENCE               => 1e-08           !
  FREEZE_CORE                 => FALSE
  FROZEN_DOCC                 => [  ]
  FROZEN_UOCC                 => [  ]
  HESS_TYPE                   => HF
  INTEGRAL_CUTOFF             => 9
  INTEGRAL_PACKAGE            => LIBINT
  LEVEL_SHIFT                 => 0.02
  LINEQ_SOLVER                => CDGESV
  LITERAL_CFOUR               => (empty)
  MAT_NUM_COLUMN_PRINT        => 5
  MAX_MOGRAD_CONVERGENCE      => 0.001
  MOLDEN_WITH_VIRTUAL         => TRUE
  MOLDEN_WRITE                => FALSE
  MO_DIIS_NUM_VECS            => 6
  MO_MAXITER                  => 50
  MO_STEP_MAX                 => 0.5
  MP2_AMP_TYPE                => DIRECT
  MP2_OS_SCALE                => 1.2
  MP2_SOS_SCALE               => 1.3
  MP2_SOS_SCALE2              => 1.2
  MP2_SS_SCALE                => 0.333333
  MP2_TYPE                    => DF
  MP_TYPE                     => CONV
  NAT_ORBS                    => FALSE
  NUM_FROZEN_DOCC             => 0
  NUM_FROZEN_UOCC             => 0
  OCC_ORBS_PRINT              => FALSE
  OEPROP                      => FALSE
  OO_SCALE                    => 0.01
  OPT_METHOD                  => QNR
  ORB_OPT                     => FALSE           !
  ORB_RESP_SOLVER             => PCG
  ORTH_TYPE                   => MGS
  PCG_BETA_TYPE               => FLETCHER_REEVES
  PCG_CONVERGENCE             => 1e-06
  PCG_MAXITER                 => 50
  PCM                         => FALSE
  PCM_CC_TYPE                 => PTE
  PCM_SCF_TYPE                => TOTAL
  PPL_TYPE                    => AUTO
  PRINT                       => 1
  PRINT_NOONS                 => 3
  PROPERTIES                  => [  ]
  PROPERTIES_ORIGIN           => [  ]
  PUREAM                      => TRUE
  QCHF                        => FALSE
  QC_MODULE                   => (empty)
  RAS1                        => [  ]
  RAS2                        => [  ]
  RAS3                        => [  ]
  RAS4                        => [  ]
  READ_SCF_3INDEX             => TRUE
  REGULARIZATION              => FALSE
  REG_PARAM                   => 0.4
  RELATIVISTIC                => NO
  RESTRICTED_DOCC             => [  ]
  RESTRICTED_UOCC             => [  ]
  RMS_MOGRAD_CONVERGENCE      => 1e-06
  R_CONVERGENCE               => 1e-05
  SCS_TYPE                    => SCS
  SOCC                        => [  ]
  SOS_TYPE                    => SOS
  TRIPLES_IABC_TYPE           => DISK
  UNITS                       => ANGSTROMS
  WFN                         => SCF
  WFN_TYPE                    => DF-OMP2         !
  WRITER_FILE_LABEL           => (empty)

 ==============================================================================
 ==============================================================================
 ==============================================================================

                       DF-MP2
              Program Written by Ugur Bozkaya
              Latest Revision April 17, 2016

 ==============================================================================
 ==============================================================================
 ==============================================================================

	MO Hessian type is changed to 'APPROX_DIAG'
	MO spaces...

	 FC   AOCC   BOCC  AVIR   BVIR   FV
	------------------------------------------
	  0     5     4    10     11     0
	Reading DF integrals from disk ...
	Number of basis functions in the DF-HF basis: 156
	Number of basis functions in the DF-CC basis:  98

	Available memory                      :    500.00 MB
	Minimum required memory for amplitudes:      0.06 MB

	Computing DF-MP2 energy using SCF MOs (Canonical DF-MP2)...
	=======================================================================
	Nuclear Repulsion Energy (a.u.)    :     8.97096759555841
	DF-HF Energy (a.u.)                :   -39.44069998025400
	REF Energy (a.u.)                  :   -39.44069998025400
	Alpha-Alpha Contribution (a.u.)    :    -0.00988901462168
	Alpha-Beta Contribution (a.u.)     :    -0.05598765022742
	Beta-Beta Contribution (a.u.)      :    -0.00255811962493
	Scaled_SS Correlation Energy (a.u.):    -0.00414904474887
	Scaled_OS Correlation Energy (a.u.):    -0.06718518027290
	DF-SCS-MP2 Total Energy (a.u.)     :   -39.51203420527577
	DF-SOS-MP2 Total Energy (a.u.)     :   -39.51348392554964
	DF-SCSN-MP2 Total Energy (a.u.)    :   -39.46260693652803
	DF-MP2 Correlation Energy (a.u.)   :    -0.06843478447403
	DF-MP2 Total Energy (a.u.)         :   -39.50913476472803
	=======================================================================

	Computing unrelaxed response density matrices...

	Forming independent-pairs...
	Number of alpha independent-pairs: 50
	Number of beta independent-pairs : 44
	Computing the generalized Fock matrix (GFM)...
	Computing the orbital gradient...
	Forming effective orbital gradient...
	Solving orbital Z-vector equations...

	            PCG Solver
	   ------------------------------
	Iter     RMS Z Vector        RMS Residual
	----    ---------------    ---------------
	  1         1.42e-02         3.01e-03
	  2         2.06e-03         1.03e-03
	  3         5.42e-04         2.32e-04
	  4         1.45e-04         4.21e-05
	  5         3.10e-05         1.48e-05
	  6         7.64e-06         2.84e-06
	  7         1.57e-06         6.55e-07
	  8         1.96e-07         1.33e-07

	Computing the relaxed PDMs and GFM...

*** tstop() called on adabbott at Thu Apr 12 13:56:23 2018
Module time:
	user time   =       0.16 seconds =       0.00 minutes
	system time =       0.51 seconds =       0.01 minutes
	total time  =          0 seconds =       0.00 minutes
Total time:
	user time   =       0.45 seconds =       0.01 minutes
	system time =       1.04 seconds =       0.02 minutes
	total time  =          0 seconds =       0.00 minutes

*** tstart() called on adabbott
*** at Thu Apr 12 13:56:23 2018

 ==============================================================================
 ==============================================================================
 ==============================================================================

                         DFGRAD
            A General Analytic Gradients Code
               for Density-Fitted Methods
                   by Ugur Bozkaya
              Latest Revision October 7, 2015

 ==============================================================================
 ==============================================================================
 ==============================================================================

	Analytic gradients computation is starting...
	Forming Gamma^tilde...
	Backtransforming OPDM, TPDM, and GFM to the AO basis...
	Computing analytic gradients...

  -Nuclear Gradient:
     Atom            X                  Y                   Z
    ------   -----------------  -----------------  -----------------
       1        0.000000000000     0.000000000000    -1.098797022476
       2        0.000000000000     0.000000000000    -0.674600123827
       3        0.000000000000    -1.566762819545     0.886698573152
       4       -0.000000000000     1.566762819545     0.886698573152

  -Kinetic Gradient:
     Atom            X                  Y                   Z
    ------   -----------------  -----------------  -----------------
       1       -0.000000000000     0.000000000000    -0.359286909694
       2       -0.000000000000     0.000000000000    -0.130188146853
       3       -0.000000000000    -0.393128365217     0.244737528274
       4        0.000000000000     0.393128365216     0.244737528274

  -Potential Gradient:
     Atom            X                  Y                   Z
    ------   -----------------  -----------------  -----------------
       1       -0.000000000000    -0.000000000003     2.212420712146
       2        0.000000000000    -0.000000000000     2.389760353588
       3        0.000000000000     3.683619492195    -2.301090532867
       4       -0.000000000000    -3.683619492192    -2.301090532867

  -Overlap Gradient:
     Atom            X                  Y                   Z
    ------   -----------------  -----------------  -----------------
       1        0.000000000000     0.000000000001    -0.137014722927
       2       -0.000000000000     0.000000000000    -0.129726763931
       3       -0.000000000000    -0.184859285217     0.133370743429
       4        0.000000000000     0.184859285216     0.133370743429

  -One-Electron Gradient:
     Atom            X                  Y                   Z
    ------   -----------------  -----------------  -----------------
       1       -0.000000000000    -0.000000000003     1.853133802451
       2        0.000000000000    -0.000000000000     2.259572206735
       3        0.000000000000     3.290491126979    -2.056353004593
       4       -0.000000000000    -3.290491126976    -2.056353004593

  -Two-Electron Gradient:
     Atom            X                  Y                   Z
    ------   -----------------  -----------------  -----------------
       1        0.000000000000     0.000000000003    -0.771745381618
       2       -0.000000000000     0.000000000000    -1.354472502422
       3       -0.000000000000    -1.613467819149     1.063108942020
       4        0.000000000000     1.613467819147     1.063108942020

  -Total Gradient:
     Atom            X                  Y                   Z
    ------   -----------------  -----------------  -----------------
       1        0.000000000000    -0.000000000000    -0.154423324570
       2        0.000000000000     0.000000000000     0.100772816555
       3       -0.000000000000    -0.074598796933     0.026825254007
       4       -0.000000000000     0.074598796933     0.026825254007

*** tstop() called on adabbott at Thu Apr 12 13:56:24 2018
Module time:
	user time   =       0.21 seconds =       0.00 minutes
	system time =       0.56 seconds =       0.01 minutes
	total time  =          1 seconds =       0.02 minutes
Total time:
	user time   =       0.66 seconds =       0.01 minutes
	system time =       1.60 seconds =       0.03 minutes
	total time  =          1 seconds =       0.02 minutes

*** Psi4 exiting successfully. Buy a developer a beer!
