                               Psi4 1.2a1.dev429

  ==> Input File <==

--------------------------------------------------------------------------
# density-fitted hartree fock energies and gradients with 6-31g
molecule h2o {
0 1
O 0.0000000000 0.0000000000 0.0000000000
H 0.0000000000 0.0000000000 1.0000000000
H 0.0000000000 0.0000000000 -0.9000000000
}

set basis 6-31g

gradient('mp2')
--------------------------------------------------------------------------

    Molecular point group: c2v
  Charge       = 0
  Multiplicity = 1
  Basis Set: 6-31G
    Blend: 6-31G
  Basis Set: (6-31G AUX)
    Blend: CC-PVDZ-JKFIT

    Orbital Energies (a.u.)
    -----------------------

    Doubly Occupied:

       1A1   -20.503634     2A1    -1.298503     3A1    -0.771491
       1B1    -0.466859     1B2    -0.466859

  @DF-RHF Final Energy:   -75.93753771673136

   => Energetics <=

    Nuclear Repulsion Energy =              9.2157293987194144
    One-Electron Energy =                -123.2918407562419816
    Two-Electron Energy =                  38.1385736407912006
    Total Energy =                        -75.9375377167313559
  Basis Set: (6-31G AUX)
    Blend: CC-PVDZ-RI
    Molecular point group: c2v

    Geometry (in Angstrom), charge = 0, multiplicity = 1:

       Center              X                  Y                   Z               Mass
    ------------   -----------------  -----------------  -----------------  -----------------
           O          0.000000000000     0.000000000000    -0.005595743664    15.994914619560
           H          0.000000000000     0.000000000000     0.994404256336     1.007825032070
           H          0.000000000000     0.000000000000    -0.905595743664     1.007825032070

  Basis Set: 6-31G
    Blend: 6-31G
  Basis Set: (6-31G AUX)
    Blend: CC-PVDZ-JKFIT
  Basis Set: (6-31G AUX)
    Blend: CC-PVDZ-JKFIT
	 Reference Energy          =     -75.9375377167313559 [Eh]
	 Singles Energy            =      -0.0000000000000000 [Eh]
	 Same-Spin Energy          =      -0.0301164480174759 [Eh]
	 Opposite-Spin Energy      =      -0.0944648161476981 [Eh]
	 Correlation Energy        =      -0.1245812641651740 [Eh]
	 Total Energy              =     -76.0621189808965283 [Eh]

	 ================> DF-SCS-MP2 Energies <==================
	-----------------------------------------------------------
	 SCS Same-Spin Scale       =       0.3333333333333333 [-]
	 SCS Opposite-Spin Scale   =       1.2000000000000000 [-]
	 SCS Same-Spin Energy      =      -0.0100388160058253 [Eh]
	 SCS Opposite-Spin Energy  =      -0.1133577793772377 [Eh]
	 SCS Correlation Energy    =      -0.1233965953830630 [Eh]
	 SCS Total Energy          =     -76.0609343121144121 [Eh]
	-----------------------------------------------------------

  -Total Gradient:
     Atom            X                  Y                   Z
    ------   -----------------  -----------------  -----------------
       1       -0.000000000000     0.000000000000    -0.120692479102
       2       -0.000000000000     0.000000000000     0.062879016607
       3        0.000000000000    -0.000000000000     0.057813462495

*** Psi4 exiting successfully. Buy a developer a beer!
