                               Psi4 1.2a1.dev429

  ==> Input File <==

--------------------------------------------------------------------------
# density-fitted hartree fock energies and gradients with 6-31g
molecule h2o {
0 1
O 0.0000000000 0.0000000000 0.0000000000
H 0.0000000000 0.0000000000 0.9000000000
H 0.0000000000 1.0832885283 -0.1910129954
}

set basis 6-31g

gradient('mp2')
--------------------------------------------------------------------------

    Molecular point group: cs
  Charge       = 0
  Multiplicity = 1
  Basis Set: 6-31G
    Blend: 6-31G
  Basis Set: (6-31G AUX)
    Blend: CC-PVDZ-JKFIT

    Orbital Energies (a.u.)
    -----------------------

    Doubly Occupied:

       1Ap   -20.571380     2Ap    -1.349308     3Ap    -0.683318
       4Ap    -0.559448     1App   -0.502514

  @DF-RHF Final Energy:   -75.96283091571935

   => Energetics <=

    Nuclear Repulsion Energy =              8.8965452572100823
    One-Electron Energy =                -122.3868166994896001
    Two-Electron Energy =                  37.5274405265601700
    Total Energy =                        -75.9628309157193513
  Basis Set: (6-31G AUX)
    Blend: CC-PVDZ-RI
    Molecular point group: cs

    Geometry (in Angstrom), charge = 0, multiplicity = 1:

       Center              X                  Y                   Z               Mass
    ------------   -----------------  -----------------  -----------------  -----------------
           O          0.060618049181     0.039673095386     0.000000000000    15.994914619560
           H          0.060618049181    -0.860326904614     0.000000000000     1.007825032070
           H         -1.022670479119     0.230686090786     0.000000000000     1.007825032070

  Basis Set: 6-31G
    Blend: 6-31G
  Basis Set: (6-31G AUX)
    Blend: CC-PVDZ-JKFIT
  Basis Set: (6-31G AUX)
    Blend: CC-PVDZ-JKFIT
	 Reference Energy          =     -75.9628309157193513 [Eh]
	 Singles Energy            =      -0.0000000000000000 [Eh]
	 Same-Spin Energy          =      -0.0308401979569913 [Eh]
	 Opposite-Spin Energy      =      -0.1018718113632857 [Eh]
	 Correlation Energy        =      -0.1327120093202770 [Eh]
	 Total Energy              =     -76.0955429250396236 [Eh]

	 ================> DF-SCS-MP2 Energies <==================
	-----------------------------------------------------------
	 SCS Same-Spin Scale       =       0.3333333333333333 [-]
	 SCS Opposite-Spin Scale   =       1.2000000000000000 [-]
	 SCS Same-Spin Energy      =      -0.0102800659856638 [Eh]
	 SCS Opposite-Spin Energy  =      -0.1222461736359429 [Eh]
	 SCS Correlation Energy    =      -0.1325262396216066 [Eh]
	 SCS Total Energy          =     -76.0953571553409631 [Eh]
	-----------------------------------------------------------

  -Total Gradient:
     Atom            X                  Y                   Z
    ------   -----------------  -----------------  -----------------
       1        0.087344542803    -0.103518183286     0.000000000000
       2       -0.014152692483     0.102370593960    -0.000000000000
       3       -0.073191850321     0.001147589326    -0.000000000000

*** Psi4 exiting successfully. Buy a developer a beer!
