                               Psi4 1.2a1.dev429

  ==> Input File <==

--------------------------------------------------------------------------
# density-fitted hartree fock energies and gradients with 6-31g
molecule h20 {
0 1
O 0.0000000000 0.0000000000 0.0000000000
H 0.0000000000 0.0000000000 0.7000000000
H 0.0000000000 1.1276311449 -0.4104241720
}

set basis 6-31g

gradient('hf')
--------------------------------------------------------------------------

    Molecular point group: cs
  Charge       = 0
  Multiplicity = 1
  Basis Set: 6-31G
    Blend: 6-31G
  Basis Set: (6-31G AUX)
    Blend: CC-PVDZ-JKFIT

    Orbital Energies (a.u.)
    -----------------------

    Doubly Occupied:

       1Ap   -20.551348     2Ap    -1.421507     3Ap    -0.729854
       4Ap    -0.540068     1App   -0.504179

  @DF-RHF Final Energy:   -75.81651741098533

   => Energetics <=

    Nuclear Repulsion Energy =              9.9099615659550118
    One-Electron Energy =                -123.9590454412180804
    Two-Electron Energy =                  38.2325664642777312
    Total Energy =                        -75.8165174109853410
    Molecular point group: cs

    Geometry (in Angstrom), charge = 0, multiplicity = 1:

       Center              X                  Y                   Z               Mass
    ------------   -----------------  -----------------  -----------------  -----------------
           O          0.063099348340     0.016203921047     0.000000000000    15.994914619560
           H          0.063099348340    -0.683796078953     0.000000000000     1.007825032070
           H         -1.064531796560     0.426628093047     0.000000000000     1.007825032070

  Basis Set: 6-31G
    Blend: 6-31G
  Basis Set: (6-31G AUX)
    Blend: CC-PVDZ-JKFIT

  -Total Gradient:
     Atom            X                  Y                   Z
    ------   -----------------  -----------------  -----------------
       1        0.121160182807    -0.789174308001     0.000000000000
       2        0.001949612887     0.743155745809     0.000000000000
       3       -0.123109795694     0.046018562192     0.000000000000

*** Psi4 exiting successfully. Buy a developer a beer!
