                               Psi4 1.2.1 release

  ==> Input File <==

--------------------------------------------------------------------------
# density fitted hartree fock
molecule h2o {
0 1
H 0.0000000000 0.0000000000 1.2000000000
H 0.0000000000 0.7852976026 -0.3252809175
O 0.0000000000 0.0000000000 0.0000000000
}

set basis 6-31g
energy('hf')

--------------------------------------------------------------------------

    Molecular point group: cs

    Geometry (in Angstrom), charge = 0, multiplicity = 1:

       Center              X                  Y                   Z               Mass
    ------------   -----------------  -----------------  -----------------  -----------------
         H            0.043943240838    -1.151052962367     0.000000000000     1.007825032070
         H           -0.741354361762     0.374227955133     0.000000000000     1.007825032070
         O            0.043943240838     0.048947037633     0.000000000000    15.994914619560

  Charge       = 0
  Multiplicity = 1
  Basis Set: 6-31G
    Blend: 6-31G
  Basis Set: (6-31G AUX)
    Blend: CC-PVDZ-JKFIT

    Orbital Energies [Eh]
    ---------------------

    Doubly Occupied:

       1Ap   -20.563217     2Ap    -1.342893     3Ap    -0.692417
       4Ap    -0.528575     1App   -0.495658

  @DF-RHF Final Energy:   -75.93142077047023

   => Energetics <=

    Nuclear Repulsion Energy =              8.8167953788783002
    One-Electron Energy =                -122.2509001225855201
    Two-Electron Energy =                  37.5026839732369908
    Total Energy =                        -75.9314207704702255

  Dipole Moment: [D]
     X:    -1.9617      Y:    -1.5580      Z:     0.0000     Total:     2.5051

*** Psi4 exiting successfully. Buy a developer a beer!
