                               Psi4 1.2a1.dev429

  ==> Input File <==

--------------------------------------------------------------------------
# density-fitted hartree fock energies and gradients with 6-31g
molecule h2o {
0 1
O 0.0000000000 0.0000000000 0.0000000000
H 0.0000000000 0.0000000000 0.9000000000
H 0.0000000000 1.2000000000 0.0000000000
}

set basis 6-31g

gradient('mp2')
--------------------------------------------------------------------------

    Molecular point group: cs
  Charge       = 0
  Multiplicity = 1
  Basis Set: 6-31G
    Blend: 6-31G
  Basis Set: (6-31G AUX)
    Blend: CC-PVDZ-JKFIT

    Orbital Energies (a.u.)
    -----------------------

    Doubly Occupied:

       1Ap   -20.587221     2Ap    -1.346298     3Ap    -0.654894
       4Ap    -0.560570     1App   -0.507185

  @DF-RHF Final Energy:   -75.93547498157916

   => Energetics <=

    Nuclear Repulsion Energy =              8.5844302726822228
    One-Electron Energy =                -121.7274734662110234
    Two-Electron Energy =                  37.2075682119496349
    Total Energy =                        -75.9354749815791621
  Basis Set: (6-31G AUX)
    Blend: CC-PVDZ-RI
    Molecular point group: cs

    Geometry (in Angstrom), charge = 0, multiplicity = 1:

       Center              X                  Y                   Z               Mass
    ------------   -----------------  -----------------  -----------------  -----------------
           O          0.067148923963     0.050361692973     0.000000000000    15.994914619560
           H          0.067148923963    -0.849638307027     0.000000000000     1.007825032070
           H         -1.132851076037     0.050361692973     0.000000000000     1.007825032070

  Basis Set: 6-31G
    Blend: 6-31G
  Basis Set: (6-31G AUX)
    Blend: CC-PVDZ-JKFIT
  Basis Set: (6-31G AUX)
    Blend: CC-PVDZ-JKFIT
	 Reference Energy          =     -75.9354749815791621 [Eh]
	 Singles Energy            =      -0.0000000000000000 [Eh]
	 Same-Spin Energy          =      -0.0318006182075277 [Eh]
	 Opposite-Spin Energy      =      -0.1064894409894890 [Eh]
	 Correlation Energy        =      -0.1382900591970167 [Eh]
	 Total Energy              =     -76.0737650407761805 [Eh]

	 ================> DF-SCS-MP2 Energies <==================
	-----------------------------------------------------------
	 SCS Same-Spin Scale       =       0.3333333333333333 [-]
	 SCS Opposite-Spin Scale   =       1.2000000000000000 [-]
	 SCS Same-Spin Energy      =      -0.0106002060691759 [Eh]
	 SCS Opposite-Spin Energy  =      -0.1277873291873868 [Eh]
	 SCS Correlation Energy    =      -0.1383875352565627 [Eh]
	 SCS Total Energy          =     -76.0738625168357316 [Eh]
	-----------------------------------------------------------

  -Total Gradient:
     Atom            X                  Y                   Z
    ------   -----------------  -----------------  -----------------
       1        0.116431498460    -0.089587369005     0.000000000000
       2       -0.027659081775     0.110331681937    -0.000000000000
       3       -0.088772416685    -0.020744312931    -0.000000000000

*** Psi4 exiting successfully. Buy a developer a beer!
