                               Psi4 1.2a1.dev429

  ==> Input File <==

--------------------------------------------------------------------------
# density-fitted hartree fock energies and gradients with 6-31g
molecule h2o {
0 1
O 0.0000000000 0.0000000000 0.0000000000
H 0.0000000000 0.0000000000 0.8000000000
H 0.0000000000 0.6427876097 -0.7660444431
}

set basis 6-31g

gradient('mp2')
--------------------------------------------------------------------------

    Molecular point group: cs
  Charge       = 0
  Multiplicity = 1
  Basis Set: 6-31G
    Blend: 6-31G
  Basis Set: (6-31G AUX)
    Blend: CC-PVDZ-JKFIT

    Orbital Energies (a.u.)
    -----------------------

    Doubly Occupied:

       1Ap   -20.520601     2Ap    -1.361151     3Ap    -0.793236
       4Ap    -0.506396     1App   -0.488815

  @DF-RHF Final Energy:   -75.93451912740036

   => Energetics <=

    Nuclear Repulsion Energy =              9.8377890238836816
    One-Electron Energy =                -124.2042169295486929
    Two-Electron Energy =                  38.4319087782646491
    Total Energy =                        -75.9345191274003639
  Basis Set: (6-31G AUX)
    Blend: CC-PVDZ-RI
    Molecular point group: cs

    Geometry (in Angstrom), charge = 0, multiplicity = 1:

       Center              X                  Y                   Z               Mass
    ------------   -----------------  -----------------  -----------------  -----------------
           O          0.035968746940     0.001900065924     0.000000000000    15.994914619560
           H          0.035968746940    -0.798099934076     0.000000000000     1.007825032070
           H         -0.606818862760     0.767944509024     0.000000000000     1.007825032070

  Basis Set: 6-31G
    Blend: 6-31G
  Basis Set: (6-31G AUX)
    Blend: CC-PVDZ-JKFIT
  Basis Set: (6-31G AUX)
    Blend: CC-PVDZ-JKFIT
	 Reference Energy          =     -75.9345191274003639 [Eh]
	 Singles Energy            =      -0.0000000000000000 [Eh]
	 Same-Spin Energy          =      -0.0293794499720206 [Eh]
	 Opposite-Spin Energy      =      -0.0931225726027657 [Eh]
	 Correlation Energy        =      -0.1225020225747862 [Eh]
	 Total Energy              =     -76.0570211499751565 [Eh]

	 ================> DF-SCS-MP2 Energies <==================
	-----------------------------------------------------------
	 SCS Same-Spin Scale       =       0.3333333333333333 [-]
	 SCS Opposite-Spin Scale   =       1.2000000000000000 [-]
	 SCS Same-Spin Energy      =      -0.0097931499906735 [Eh]
	 SCS Opposite-Spin Energy  =      -0.1117470871233188 [Eh]
	 SCS Correlation Energy    =      -0.1215402371139923 [Eh]
	 SCS Total Energy          =     -76.0560593645143541 [Eh]
	-----------------------------------------------------------

  -Total Gradient:
     Atom            X                  Y                   Z
    ------   -----------------  -----------------  -----------------
       1       -0.020701610005    -0.357379865590    -0.000000000000
       2        0.033137709326     0.301316599919     0.000000000000
       3       -0.012436099322     0.056063265671    -0.000000000000

*** Psi4 exiting successfully. Buy a developer a beer!
