                               Psi4 1.2a1.dev429

  ==> Input File <==

--------------------------------------------------------------------------
# density-fitted hartree fock energies and gradients with 6-31g
molecule h2o {
0 1
O 0.0000000000 0.0000000000 0.0000000000
H 0.0000000000 0.0000000000 1.0000000000
H 0.0000000000 1.2990381057 -0.7500000000
}

set basis 6-31g

gradient('mp2')
--------------------------------------------------------------------------

    Molecular point group: cs
  Charge       = 0
  Multiplicity = 1
  Basis Set: 6-31G
    Blend: 6-31G
  Basis Set: (6-31G AUX)
    Blend: CC-PVDZ-JKFIT

    Orbital Energies (a.u.)
    -----------------------

    Doubly Occupied:

       1Ap   -20.588727     2Ap    -1.267470     3Ap    -0.615675
       1App   -0.486224     4Ap    -0.473558

  @DF-RHF Final Energy:   -75.86250538559513

   => Energetics <=

    Nuclear Repulsion Energy =              7.2984992698062481
    One-Electron Energy =                -119.4586999458711318
    Two-Electron Energy =                  36.2976952904697541
    Total Energy =                        -75.8625053855951421
  Basis Set: (6-31G AUX)
    Blend: CC-PVDZ-RI
    Molecular point group: cs

    Geometry (in Angstrom), charge = 0, multiplicity = 1:

       Center              X                  Y                   Z               Mass
    ------------   -----------------  -----------------  -----------------  -----------------
           O          0.072690842488     0.013989359159     0.000000000000    15.994914619560
           H          0.072690842488    -0.986010640841     0.000000000000     1.007825032070
           H         -1.226347263212     0.763989359159     0.000000000000     1.007825032070

  Basis Set: 6-31G
    Blend: 6-31G
  Basis Set: (6-31G AUX)
    Blend: CC-PVDZ-JKFIT
  Basis Set: (6-31G AUX)
    Blend: CC-PVDZ-JKFIT
	 Reference Energy          =     -75.8625053855951279 [Eh]
	 Singles Energy            =      -0.0000000000000000 [Eh]
	 Same-Spin Energy          =      -0.0345896506411619 [Eh]
	 Opposite-Spin Energy      =      -0.1193624388178611 [Eh]
	 Correlation Energy        =      -0.1539520894590229 [Eh]
	 Total Energy              =     -76.0164574750541533 [Eh]

	 ================> DF-SCS-MP2 Energies <==================
	-----------------------------------------------------------
	 SCS Same-Spin Scale       =       0.3333333333333333 [-]
	 SCS Opposite-Spin Scale   =       1.2000000000000000 [-]
	 SCS Same-Spin Energy      =      -0.0115298835470540 [Eh]
	 SCS Opposite-Spin Energy  =      -0.1432349265814333 [Eh]
	 SCS Correlation Energy    =      -0.1547648101284872 [Eh]
	 SCS Total Energy          =     -76.0172701957236114 [Eh]
	-----------------------------------------------------------

  -Total Gradient:
     Atom            X                  Y                   Z
    ------   -----------------  -----------------  -----------------
       1        0.053168076259    -0.057727101646     0.000000000000
       2        0.028446424776    -0.011291120112    -0.000000000000
       3       -0.081614501035     0.069018221758     0.000000000000

*** Psi4 exiting successfully. Buy a developer a beer!
