                               Psi4 1.2a1.dev429

  ==> Input File <==

--------------------------------------------------------------------------
# density-fitted hartree fock energies and gradients with 6-31g
molecule o2 {
0 3
O 0.0000000000 0.0000000000 0.0000000000
O 0.0000000000 0.0000000000 1.1571428571
}

set basis 6-31g
set reference rohf

energy('scf')
--------------------------------------------------------------------------

    Molecular point group: d2h

    Geometry (in Angstrom), charge = 0, multiplicity = 3:

       Center              X                  Y                   Z               Mass
    ------------   -----------------  -----------------  -----------------  -----------------
           O          0.000000000000     0.000000000000    -0.578571428550    15.994914619560
           O          0.000000000000     0.000000000000     0.578571428550    15.994914619560

  Charge       = 0
  Multiplicity = 3
  Basis Set: 6-31G
    Blend: 6-31G
  Basis Set: (6-31G AUX)
    Blend: CC-PVDZ-JKFIT

    Orbital Energies (a.u.)
    -----------------------

    Doubly Occupied:

       1Ag   -20.739332     1B1u  -20.738293     2Ag    -1.741742
       2B1u   -1.081923     3Ag    -0.738205     1B2u   -0.737647
       1B3u   -0.737647

    Singly Occupied:

       1B3g   -0.207707     1B2g   -0.207707

  @DF-ROHF Final Energy:  -149.52643268546359

   => Energetics <=

    Nuclear Repulsion Energy =             29.2680727724815313
    One-Electron Energy =                -263.4925468458405362
    Two-Electron Energy =                  84.6980413878954153
    Total Energy =                       -149.5264326854635897
*** Psi4 exiting successfully. Buy a developer a beer!
