                               Psi4 1.2a1.dev429

  ==> Input File <==

--------------------------------------------------------------------------
# density-fitted hartree fock energies and gradients with 6-31g
molecule h20 {
0 1
O 0.0000000000 0.0000000000 0.0000000000
O 0.0000000000 0.0000000000 0.9767676768
}

set basis 6-31g

gradient('hf')
--------------------------------------------------------------------------

    Molecular point group: d2h
  Charge       = 0
  Multiplicity = 1
  Basis Set: 6-31G
    Blend: 6-31G
  Basis Set: (6-31G AUX)
    Blend: CC-PVDZ-JKFIT

    Orbital Energies (a.u.)
    -----------------------

    Doubly Occupied:

       1Ag   -20.721833     1B1u  -20.718772     2Ag    -1.975890
       2B1u   -1.014488     1B2u   -0.897593     1B3u   -0.796135
       3Ag    -0.794444     1B3g   -0.370966

  @DF-RHF Final Energy:  -149.32098260953811

   => Energetics <=

    Nuclear Repulsion Energy =             34.6728727354217980
    One-Electron Energy =                -273.4074664787208917
    Two-Electron Energy =                  89.4136111337609520
    Total Energy =                       -149.3209826095381345
    Molecular point group: d2h

    Geometry (in Angstrom), charge = 0, multiplicity = 1:

       Center              X                  Y                   Z               Mass
    ------------   -----------------  -----------------  -----------------  -----------------
           O          0.000000000000     0.000000000000    -0.488383838400    15.994914619560
           O          0.000000000000     0.000000000000     0.488383838400    15.994914619560

  Basis Set: 6-31G
    Blend: 6-31G
  Basis Set: (6-31G AUX)
    Blend: CC-PVDZ-JKFIT

  -Total Gradient:
     Atom            X                  Y                   Z
    ------   -----------------  -----------------  -----------------
       1       -0.000000000000     0.000000000000     0.901603235459
       2        0.000000000000     0.000000000000    -0.901603235459

*** Psi4 exiting successfully. Buy a developer a beer!
