                               Psi4 1.2a1.dev429

  ==> Input File <==

--------------------------------------------------------------------------
# density-fitted hartree fock energies and gradients with 6-31g
molecule h2o {
0 1
O 0.0000000000 0.0000000000 0.0000000000
H 0.0000000000 0.0000000000 1.0000000000
H 0.0000000000 1.2802500789 -0.2257426310
}

set basis 6-31g

gradient('mp2')
--------------------------------------------------------------------------

    Molecular point group: cs
  Charge       = 0
  Multiplicity = 1
  Basis Set: 6-31G
    Blend: 6-31G
  Basis Set: (6-31G AUX)
    Blend: CC-PVDZ-JKFIT

    Orbital Energies (a.u.)
    -----------------------

    Doubly Occupied:

       1Ap   -20.598049     2Ap    -1.295324     3Ap    -0.626785
       4Ap    -0.527765     1App   -0.499815

  @DF-RHF Final Energy:   -75.92064979069529

   => Energetics <=

    Nuclear Repulsion Energy =              7.7884541704934254
    One-Electron Energy =                -120.3227311447743944
    Two-Electron Energy =                  36.6136271835856846
    Total Energy =                        -75.9206497906952791
  Basis Set: (6-31G AUX)
    Blend: CC-PVDZ-RI
    Molecular point group: cs

    Geometry (in Angstrom), charge = 0, multiplicity = 1:

       Center              X                  Y                   Z               Mass
    ------------   -----------------  -----------------  -----------------  -----------------
           O          0.071639512669     0.043325457666     0.000000000000    15.994914619560
           H          0.071639512669    -0.956674542334     0.000000000000     1.007825032070
           H         -1.208610566231     0.269068088666     0.000000000000     1.007825032070

  Basis Set: 6-31G
    Blend: 6-31G
  Basis Set: (6-31G AUX)
    Blend: CC-PVDZ-JKFIT
  Basis Set: (6-31G AUX)
    Blend: CC-PVDZ-JKFIT
	 Reference Energy          =     -75.9206497906952933 [Eh]
	 Singles Energy            =      -0.0000000000000000 [Eh]
	 Same-Spin Energy          =      -0.0336258295829525 [Eh]
	 Opposite-Spin Energy      =      -0.1131849829791203 [Eh]
	 Correlation Energy        =      -0.1468108125620728 [Eh]
	 Total Energy              =     -76.0674606032573593 [Eh]

	 ================> DF-SCS-MP2 Energies <==================
	-----------------------------------------------------------
	 SCS Same-Spin Scale       =       0.3333333333333333 [-]
	 SCS Opposite-Spin Scale   =       1.2000000000000000 [-]
	 SCS Same-Spin Energy      =      -0.0112086098609842 [Eh]
	 SCS Opposite-Spin Energy  =      -0.1358219795749444 [Eh]
	 SCS Correlation Energy    =      -0.1470305894359286 [Eh]
	 SCS Total Energy          =     -76.0676803801312218 [Eh]
	-----------------------------------------------------------

  -Total Gradient:
     Atom            X                  Y                   Z
    ------   -----------------  -----------------  -----------------
       1        0.104091375412    -0.009129533982     0.000000000000
       2       -0.000355019034    -0.008884675831    -0.000000000000
       3       -0.103736356378     0.018014209814    -0.000000000000

*** Psi4 exiting successfully. Buy a developer a beer!
