                               Psi4 1.2a1.dev429

  ==> Input File <==

--------------------------------------------------------------------------
# density-fitted hartree fock energies and gradients with 6-31g
molecule h2o {
0 1
O 0.0000000000 0.0000000000 0.0000000000
H 0.0000000000 0.0000000000 0.9000000000
H 0.0000000000 0.4788282007 -1.3155696691
}

set basis 6-31g

gradient('mp2')
--------------------------------------------------------------------------

    Molecular point group: cs
  Charge       = 0
  Multiplicity = 1
  Basis Set: 6-31G
    Blend: 6-31G
  Basis Set: (6-31G AUX)
    Blend: CC-PVDZ-JKFIT

    Orbital Energies (a.u.)
    -----------------------

    Doubly Occupied:

       1Ap   -20.510348     2Ap    -1.251997     3Ap    -0.643475
       1App   -0.443468     4Ap    -0.438424

  @DF-RHF Final Energy:   -75.83886459680014

   => Energetics <=

    Nuclear Repulsion Energy =              7.9611220803579510
    One-Electron Energy =                -121.0245499588305336
    Two-Electron Energy =                  37.2245632816724523
    Total Energy =                        -75.8388645968001356
  Basis Set: (6-31G AUX)
    Blend: CC-PVDZ-RI
    Molecular point group: cs

    Geometry (in Angstrom), charge = 0, multiplicity = 1:

       Center              X                  Y                   Z               Mass
    ------------   -----------------  -----------------  -----------------  -----------------
           O          0.026793998700    -0.023254213427     0.000000000000    15.994914619560
           H          0.026793998700    -0.923254213427     0.000000000000     1.007825032070
           H         -0.452034202000     1.292315455673     0.000000000000     1.007825032070

  Basis Set: 6-31G
    Blend: 6-31G
  Basis Set: (6-31G AUX)
    Blend: CC-PVDZ-JKFIT
  Basis Set: (6-31G AUX)
    Blend: CC-PVDZ-JKFIT
	 Reference Energy          =     -75.8388645968001356 [Eh]
	 Singles Energy            =      -0.0000000000000000 [Eh]
	 Same-Spin Energy          =      -0.0330424512302462 [Eh]
	 Opposite-Spin Energy      =      -0.1060814855550382 [Eh]
	 Correlation Energy        =      -0.1391239367852844 [Eh]
	 Total Energy              =     -75.9779885335854175 [Eh]

	 ================> DF-SCS-MP2 Energies <==================
	-----------------------------------------------------------
	 SCS Same-Spin Scale       =       0.3333333333333333 [-]
	 SCS Opposite-Spin Scale   =       1.2000000000000000 [-]
	 SCS Same-Spin Energy      =      -0.0110141504100821 [Eh]
	 SCS Opposite-Spin Energy  =      -0.1272977826660458 [Eh]
	 SCS Correlation Energy    =      -0.1383119330761279 [Eh]
	 SCS Total Energy          =     -75.9771765298762602 [Eh]
	-----------------------------------------------------------

  -Total Gradient:
     Atom            X                  Y                   Z
    ------   -----------------  -----------------  -----------------
       1       -0.027242332386    -0.218643682152    -0.000000000000
       2        0.045447471847     0.083202927081    -0.000000000000
       3       -0.018205139461     0.135440755071     0.000000000000

*** Psi4 exiting successfully. Buy a developer a beer!
