                               Psi4 1.2.1 release

  ==> Input File <==

--------------------------------------------------------------------------
# density fitted hartree fock
molecule h2o {
0 1
H 0.0000000000 0.0000000000 1.2000000000
H 0.0000000000 1.1897338336 -0.1566314307
O 0.0000000000 0.0000000000 0.0000000000
}

set basis 6-31g
energy('hf')

--------------------------------------------------------------------------

    Molecular point group: c2v

    Geometry (in Angstrom), charge = 0, multiplicity = 1:

       Center              X                  Y                   Z               Mass
    ------------   -----------------  -----------------  -----------------  -----------------
         H            0.000000000000    -0.902207768972     0.702666254086     1.007825032070
         H           -0.000000000000     0.902207768972     0.702666254086     1.007825032070
         O            0.000000000000     0.000000000000    -0.088548724004    15.994914619560

  Charge       = 0
  Multiplicity = 1
  Basis Set: 6-31G
    Blend: 6-31G
  Basis Set: (6-31G AUX)
    Blend: CC-PVDZ-JKFIT

    Orbital Energies [Eh]
    ---------------------

    Doubly Occupied:

       1A1   -20.611901     2A1    -1.268937     1B2    -0.589832
       3A1    -0.535833     1B1    -0.500017

  @DF-RHF Final Energy:   -75.91033570869983

   => Energetics <=

    Nuclear Repulsion Energy =              7.3489640440610149
    One-Electron Energy =                -119.5055423843756301
    Two-Electron Energy =                  36.2462426316147770
    Total Energy =                        -75.9103357086998329

  Dipole Moment: [D]
     X:     0.0000      Y:     0.0000      Z:     2.7470     Total:     2.7470

*** Psi4 exiting successfully. Buy a developer a beer!
