                               Psi4 1.2a1.dev429

  ==> Input File <==

--------------------------------------------------------------------------
# density-fitted hartree fock energies and gradients with 6-31g
molecule h2o {
0 1
O 0.0000000000 0.0000000000 0.0000000000
H 0.0000000000 0.0000000000 1.1000000000
H 0.0000000000 0.9000000000 0.0000000000
}

set basis 6-31g

gradient('mp2')
--------------------------------------------------------------------------

    Molecular point group: cs
  Charge       = 0
  Multiplicity = 1
  Basis Set: 6-31G
    Blend: 6-31G
  Basis Set: (6-31G AUX)
    Blend: CC-PVDZ-JKFIT

    Orbital Energies (a.u.)
    -----------------------

    Doubly Occupied:

       1Ap   -20.578384     2Ap    -1.360368     3Ap    -0.667451
       4Ap    -0.576902     1App   -0.507498

  @DF-RHF Final Energy:   -75.95449784541857

   => Energetics <=

    Nuclear Repulsion Energy =              8.9246867113982233
    One-Electron Energy =                -122.3771625232060103
    Two-Electron Energy =                  37.4979779663892145
    Total Energy =                        -75.9544978454185724
  Basis Set: (6-31G AUX)
    Blend: CC-PVDZ-RI
    Molecular point group: cs

    Geometry (in Angstrom), charge = 0, multiplicity = 1:

       Center              X                  Y                   Z               Mass
    ------------   -----------------  -----------------  -----------------  -----------------
           O          0.050361692973     0.061553180300     0.000000000000    15.994914619560
           H          0.050361692973    -1.038446819700     0.000000000000     1.007825032070
           H         -0.849638307027     0.061553180300     0.000000000000     1.007825032070

  Basis Set: 6-31G
    Blend: 6-31G
  Basis Set: (6-31G AUX)
    Blend: CC-PVDZ-JKFIT
  Basis Set: (6-31G AUX)
    Blend: CC-PVDZ-JKFIT
	 Reference Energy          =     -75.9544978454185724 [Eh]
	 Singles Energy            =      -0.0000000000000000 [Eh]
	 Same-Spin Energy          =      -0.0309813018679122 [Eh]
	 Opposite-Spin Energy      =      -0.1028913962006587 [Eh]
	 Correlation Energy        =      -0.1338726980685709 [Eh]
	 Total Energy              =     -76.0883705434871445 [Eh]

	 ================> DF-SCS-MP2 Energies <==================
	-----------------------------------------------------------
	 SCS Same-Spin Scale       =       0.3333333333333333 [-]
	 SCS Opposite-Spin Scale   =       1.2000000000000000 [-]
	 SCS Same-Spin Energy      =      -0.0103271006226374 [Eh]
	 SCS Opposite-Spin Energy  =      -0.1234696754407904 [Eh]
	 SCS Correlation Energy    =      -0.1337967760634278 [Eh]
	 SCS Total Energy          =     -76.0882946214820066 [Eh]
	-----------------------------------------------------------

  -Total Gradient:
     Atom            X                  Y                   Z
    ------   -----------------  -----------------  -----------------
       1       -0.081489878753     0.096607994306     0.000000000000
       2       -0.028150617933    -0.062201684424    -0.000000000000
       3        0.109640496687    -0.034406309882    -0.000000000000

*** Psi4 exiting successfully. Buy a developer a beer!
