                               Psi4 1.3.1 release

  ==> Input File <==

--------------------------------------------------------------------------
# density fitted hartree fock
molecule h2o {
0 1
H 0.0000000000 0.0000000000 1.1500000000
H 0.0000000000 1.0500000000 0.0000000000
O 0.0000000000 0.0000000000 0.0000000000
}

set basis 6-31g
energy('hf')

--------------------------------------------------------------------------

    Molecular point group: cs

    Geometry (in Angstrom), charge = 0, multiplicity = 1:

       Center              X                  Y                   Z               Mass
    ------------   -----------------  -----------------  -----------------  -----------------
         H            0.058755308476    -1.085648947859     0.000000000000     1.007825032230
         H           -0.991244691524     0.064351052141     0.000000000000     1.007825032230
         O            0.058755308476     0.064351052141     0.000000000000    15.994914619570

  Charge       = 0
  Multiplicity = 1
  Basis Set: 6-31G
    Blend: 6-31G
  Basis Set: (6-31G AUX)
    Blend: CC-PVDZ-JKFIT

    Orbital Energies [Eh]
    ---------------------

    Doubly Occupied:

       1Ap   -20.599172     2Ap    -1.308677     3Ap    -0.620932
       4Ap    -0.563603     1App   -0.504705

  @DF-RHF Final Energy:   -75.94421378518300

   => Energetics <=

    Nuclear Repulsion Energy =              8.0528762619287786
    One-Electron Energy =                -120.7999979234813708
    Two-Electron Energy =                  36.8029078763695878
    Total Energy =                        -75.9442137851830097

  Dipole Moment: [D]
     X:    -2.0517      Y:    -2.0099      Z:     0.0000     Total:     2.8721

*** Psi4 exiting successfully. Buy a developer a beer!
