                               Psi4 1.2a1.dev429

  ==> Input File <==

--------------------------------------------------------------------------
# density-fitted hartree fock energies and gradients with 6-31g
molecule h2o {
0 1
O 0.0000000000 0.0000000000 0.0000000000
H 0.0000000000 0.0000000000 0.8000000000
H 0.0000000000 0.4500000000 -0.7794228634
}

set basis 6-31g

gradient('mp2')
--------------------------------------------------------------------------

    Molecular point group: cs
  Charge       = 0
  Multiplicity = 1
  Basis Set: 6-31G
    Blend: 6-31G
  Basis Set: (6-31G AUX)
    Blend: CC-PVDZ-JKFIT

    Orbital Energies (a.u.)
    -----------------------

    Doubly Occupied:

       1Ap   -20.509015     2Ap    -1.373243     3Ap    -0.842706
       4Ap    -0.503105     1App   -0.492131

  @DF-RHF Final Energy:   -75.93081810880361

   => Energetics <=

    Nuclear Repulsion Energy =             10.3177909785350579
    One-Electron Energy =                -125.0568207406710997
    Two-Electron Energy =                  38.8082116533324353
    Total Energy =                        -75.9308181088036065
  Basis Set: (6-31G AUX)
    Blend: CC-PVDZ-RI
    Molecular point group: cs

    Geometry (in Angstrom), charge = 0, multiplicity = 1:

       Center              X                  Y                   Z               Mass
    ------------   -----------------  -----------------  -----------------  -----------------
           O          0.025180846486     0.001151443817     0.000000000000    15.994914619560
           H          0.025180846486    -0.798848556183     0.000000000000     1.007825032070
           H         -0.424819153514     0.780574307217     0.000000000000     1.007825032070

  Basis Set: 6-31G
    Blend: 6-31G
  Basis Set: (6-31G AUX)
    Blend: CC-PVDZ-JKFIT
  Basis Set: (6-31G AUX)
    Blend: CC-PVDZ-JKFIT
	 Reference Energy          =     -75.9308181088036065 [Eh]
	 Singles Energy            =      -0.0000000000000000 [Eh]
	 Same-Spin Energy          =      -0.0285343581300096 [Eh]
	 Opposite-Spin Energy      =      -0.0899088443830865 [Eh]
	 Correlation Energy        =      -0.1184432025130961 [Eh]
	 Total Energy              =     -76.0492613113166982 [Eh]

	 ================> DF-SCS-MP2 Energies <==================
	-----------------------------------------------------------
	 SCS Same-Spin Scale       =       0.3333333333333333 [-]
	 SCS Opposite-Spin Scale   =       1.2000000000000000 [-]
	 SCS Same-Spin Energy      =      -0.0095114527100032 [Eh]
	 SCS Opposite-Spin Energy  =      -0.1078906132597037 [Eh]
	 SCS Correlation Energy    =      -0.1174020659697069 [Eh]
	 SCS Total Energy          =     -76.0482201747733200 [Eh]
	-----------------------------------------------------------

  -Total Gradient:
     Atom            X                  Y                   Z
    ------   -----------------  -----------------  -----------------
       1       -0.081442702385    -0.253965421621    -0.000000000000
       2        0.029730348208     0.290679894476     0.000000000000
       3        0.051712354177    -0.036714472854     0.000000000000

*** Psi4 exiting successfully. Buy a developer a beer!
