                               Psi4 1.2a1.dev429

  ==> Input File <==

--------------------------------------------------------------------------
# density-fitted hartree fock energies and gradients with 6-31g
molecule h20 {
0 1
O 0.0000000000 0.0000000000 0.0000000000
H 0.0000000000 0.0000000000 0.9000000000
H 0.0000000000 0.7660444431 -0.6427876097
}

set basis 6-31g

gradient('hf')
--------------------------------------------------------------------------

    Molecular point group: cs
  Charge       = 0
  Multiplicity = 1
  Basis Set: 6-31G
    Blend: 6-31G
  Basis Set: (6-31G AUX)
    Blend: CC-PVDZ-JKFIT

    Orbital Energies (a.u.)
    -----------------------

    Doubly Occupied:

       1Ap   -20.537212     2Ap    -1.334951     3Ap    -0.750146
       4Ap    -0.514556     1App   -0.488240

  @DF-RHF Final Energy:   -75.97207896106855

   => Energetics <=

    Nuclear Repulsion Energy =              9.2444291206656164
    One-Electron Energy =                -123.1828054403996759
    Two-Electron Energy =                  37.9662973586655070
    Total Energy =                        -75.9720789610685472
    Molecular point group: cs

    Geometry (in Angstrom), charge = 0, multiplicity = 1:

       Center              X                  Y                   Z               Mass
    ------------   -----------------  -----------------  -----------------  -----------------
           O          0.042865883385     0.014392946032     0.000000000000    15.994914619560
           H          0.042865883385    -0.885607053968     0.000000000000     1.007825032070
           H         -0.723178559715     0.657180555732     0.000000000000     1.007825032070

  Basis Set: 6-31G
    Blend: 6-31G
  Basis Set: (6-31G AUX)
    Blend: CC-PVDZ-JKFIT

  -Total Gradient:
     Atom            X                  Y                   Z
    ------   -----------------  -----------------  -----------------
       1        0.005905049154    -0.113732539926     0.000000000000
       2        0.025610722778     0.057198485624     0.000000000000
       3       -0.031515771933     0.056534054302     0.000000000000

*** Psi4 exiting successfully. Buy a developer a beer!
