                               Psi4 1.2a1.dev429

  ==> Input File <==

--------------------------------------------------------------------------
# density-fitted hartree fock energies and gradients with 6-31g
molecule h2o {
0 1
O 0.0000000000 0.0000000000 0.0000000000
H 0.0000000000 0.0000000000 1.2000000000
H 0.0000000000 0.0000000000 -0.8000000000
}

set basis 6-31g

gradient('mp2')
--------------------------------------------------------------------------

    Molecular point group: c2v
  Charge       = 0
  Multiplicity = 1
  Basis Set: 6-31G
    Blend: 6-31G
  Basis Set: (6-31G AUX)
    Blend: CC-PVDZ-JKFIT

    Orbital Energies (a.u.)
    -----------------------

    Doubly Occupied:

       1A1   -20.494739     2A1    -1.302207     3A1    -0.728395
       1B1    -0.455227     1B2    -0.455227

  @DF-RHF Final Energy:   -75.85958834891009

   => Energetics <=

    Nuclear Repulsion Energy =              9.0842087474616662
    One-Electron Energy =                -123.0160044450743442
    Two-Electron Energy =                  38.0722073487025767
    Total Energy =                        -75.8595883489100942
  Basis Set: (6-31G AUX)
    Blend: CC-PVDZ-RI
    Molecular point group: c2v

    Geometry (in Angstrom), charge = 0, multiplicity = 1:

       Center              X                  Y                   Z               Mass
    ------------   -----------------  -----------------  -----------------  -----------------
           O          0.000000000000     0.000000000000    -0.022382974654    15.994914619560
           H          0.000000000000     0.000000000000     1.177617025346     1.007825032070
           H          0.000000000000     0.000000000000    -0.822382974654     1.007825032070

  Basis Set: 6-31G
    Blend: 6-31G
  Basis Set: (6-31G AUX)
    Blend: CC-PVDZ-JKFIT
  Basis Set: (6-31G AUX)
    Blend: CC-PVDZ-JKFIT
	 Reference Energy          =     -75.8595883489100942 [Eh]
	 Singles Energy            =      -0.0000000000000000 [Eh]
	 Same-Spin Energy          =      -0.0308180523196245 [Eh]
	 Opposite-Spin Energy      =      -0.0966732644275269 [Eh]
	 Correlation Energy        =      -0.1274913167471513 [Eh]
	 Total Energy              =     -75.9870796656572480 [Eh]

	 ================> DF-SCS-MP2 Energies <==================
	-----------------------------------------------------------
	 SCS Same-Spin Scale       =       0.3333333333333333 [-]
	 SCS Opposite-Spin Scale   =       1.2000000000000000 [-]
	 SCS Same-Spin Energy      =      -0.0102726841065415 [Eh]
	 SCS Opposite-Spin Energy  =      -0.1160079173130322 [Eh]
	 SCS Correlation Energy    =      -0.1262806014195737 [Eh]
	 SCS Total Energy          =     -75.9858689503296745 [Eh]
	-----------------------------------------------------------

  -Total Gradient:
     Atom            X                  Y                   Z
    ------   -----------------  -----------------  -----------------
       1       -0.000000000000    -0.000000000000    -0.444123116228
       2       -0.000000000000    -0.000000000000     0.148685295721
       3        0.000000000000     0.000000000000     0.295437820507

*** Psi4 exiting successfully. Buy a developer a beer!
