                               Psi4 1.2a1.dev429

  ==> Input File <==

--------------------------------------------------------------------------
# density-fitted hartree fock energies and gradients with 6-31g
molecule h20 {
0 1
O 0.0000000000 0.0000000000 0.0000000000
H 0.0000000000 0.0000000000 0.9000000000
H 0.0000000000 0.9192533317 -0.7713451316
}

set basis 6-31g

gradient('hf')
--------------------------------------------------------------------------

    Molecular point group: cs
  Charge       = 0
  Multiplicity = 1
  Basis Set: 6-31G
    Blend: 6-31G
  Basis Set: (6-31G AUX)
    Blend: CC-PVDZ-JKFIT

    Orbital Energies (a.u.)
    -----------------------

    Doubly Occupied:

       1Ap   -20.549502     2Ap    -1.305199     3Ap    -0.691637
       4Ap    -0.497139     1App   -0.481150

  @DF-RHF Final Energy:   -75.93062312107779

   => Energetics <=

    Nuclear Repulsion Energy =              8.5090698585823095
    One-Electron Energy =                -121.8301306836196574
    Two-Electron Energy =                  37.3904377039595630
    Total Energy =                        -75.9306231210777867
    Molecular point group: cs

    Geometry (in Angstrom), charge = 0, multiplicity = 1:

       Center              X                  Y                   Z               Mass
    ------------   -----------------  -----------------  -----------------  -----------------
           O          0.051439060061     0.007199196646     0.000000000000    15.994914619560
           H          0.051439060061    -0.892800803354     0.000000000000     1.007825032070
           H         -0.867814271639     0.778544328246     0.000000000000     1.007825032070

  Basis Set: 6-31G
    Blend: 6-31G
  Basis Set: (6-31G AUX)
    Blend: CC-PVDZ-JKFIT

  -Total Gradient:
     Atom            X                  Y                   Z
    ------   -----------------  -----------------  -----------------
       1        0.057420473282    -0.171791722106     0.000000000000
       2        0.032457753305     0.064596994997     0.000000000000
       3       -0.089878226588     0.107194727110     0.000000000000

*** Psi4 exiting successfully. Buy a developer a beer!
