                               Psi4 1.2a1.dev429

  ==> Input File <==

--------------------------------------------------------------------------
# density-fitted hartree fock energies and gradients with 6-31g
molecule h2o {
0 1
O 0.0000000000 0.0000000000 0.0000000000
H 0.0000000000 0.0000000000 1.0000000000
H 0.0000000000 0.6928203230 -0.4000000000
}

set basis 6-31g

gradient('mp2')
--------------------------------------------------------------------------

    Molecular point group: cs
  Charge       = 0
  Multiplicity = 1
  Basis Set: 6-31G
    Blend: 6-31G
  Basis Set: (6-31G AUX)
    Blend: CC-PVDZ-JKFIT

    Orbital Energies (a.u.)
    -----------------------

    Doubly Occupied:

       1Ap   -20.537145     2Ap    -1.383271     3Ap    -0.770325
       4Ap    -0.538761     1App   -0.498845

  @DF-RHF Final Energy:   -75.94722414137706

   => Energetics <=

    Nuclear Repulsion Energy =              9.8639607483777905
    One-Electron Energy =                -124.1656751016159888
    Two-Electron Energy =                  38.3544902118611262
    Total Energy =                        -75.9472241413770632
  Basis Set: (6-31G AUX)
    Blend: CC-PVDZ-RI
    Molecular point group: cs

    Geometry (in Angstrom), charge = 0, multiplicity = 1:

       Center              X                  Y                   Z               Mass
    ------------   -----------------  -----------------  -----------------  -----------------
           O          0.038768449325     0.033574461982     0.000000000000    15.994914619560
           H          0.038768449325    -0.966425538018     0.000000000000     1.007825032070
           H         -0.654051873675     0.433574461982     0.000000000000     1.007825032070

  Basis Set: 6-31G
    Blend: 6-31G
  Basis Set: (6-31G AUX)
    Blend: CC-PVDZ-JKFIT
  Basis Set: (6-31G AUX)
    Blend: CC-PVDZ-JKFIT
	 Reference Energy          =     -75.9472241413770632 [Eh]
	 Singles Energy            =      -0.0000000000000000 [Eh]
	 Same-Spin Energy          =      -0.0290442291881559 [Eh]
	 Opposite-Spin Energy      =      -0.0937627152171720 [Eh]
	 Correlation Energy        =      -0.1228069444053279 [Eh]
	 Total Energy              =     -76.0700310857823894 [Eh]

	 ================> DF-SCS-MP2 Energies <==================
	-----------------------------------------------------------
	 SCS Same-Spin Scale       =       0.3333333333333333 [-]
	 SCS Opposite-Spin Scale   =       1.2000000000000000 [-]
	 SCS Same-Spin Energy      =      -0.0096814097293853 [Eh]
	 SCS Opposite-Spin Energy  =      -0.1125152582606064 [Eh]
	 SCS Correlation Energy    =      -0.1221966679899917 [Eh]
	 SCS Total Energy          =     -76.0694208093670596 [Eh]
	-----------------------------------------------------------

  -Total Gradient:
     Atom            X                  Y                   Z
    ------   -----------------  -----------------  -----------------
       1       -0.287539313984     0.182558915122     0.000000000000
       2        0.009731428038    -0.036212564030    -0.000000000000
       3        0.277807885946    -0.146346351093    -0.000000000000

*** Psi4 exiting successfully. Buy a developer a beer!
