                               Psi4 1.3.1 release

  ==> Input File <==

--------------------------------------------------------------------------
# density fitted hartree fock
molecule h2o {
0 1
H 0.0000000000 0.0000000000 1.2000000000
H 0.0000000000 0.8600155252 -0.2652796570
O 0.0000000000 0.0000000000 0.0000000000
}

set basis 6-31g
energy('hf')

--------------------------------------------------------------------------

    Molecular point group: cs

    Geometry (in Angstrom), charge = 0, multiplicity = 1:

       Center              X                  Y                   Z               Mass
    ------------   -----------------  -----------------  -----------------  -----------------
         H            0.048124264264    -1.147695445627     0.000000000000     1.007825032230
         H           -0.811891260936     0.317584211373     0.000000000000     1.007825032230
         O            0.048124264264     0.052304554373     0.000000000000    15.994914619570

  Charge       = 0
  Multiplicity = 1
  Basis Set: 6-31G
    Blend: 6-31G
  Basis Set: (6-31G AUX)
    Blend: CC-PVDZ-JKFIT

    Orbital Energies [Eh]
    ---------------------

    Doubly Occupied:

       1Ap   -20.573593     2Ap    -1.329068     3Ap    -0.673276
       4Ap    -0.535061     1App   -0.497466

  @DF-RHF Final Energy:   -75.94325062371568

   => Energetics <=

    Nuclear Repulsion Energy =              8.5431056395696920
    One-Electron Energy =                -121.7557724453356229
    Two-Electron Energy =                  37.2694161820502501
    Total Energy =                        -75.9432506237156844

  Dipole Moment: [D]
     X:    -2.0249      Y:    -1.6263      Z:     0.0000     Total:     2.5971

*** Psi4 exiting successfully. Buy a developer a beer!
