                               Psi4 1.2a1.dev429

  ==> Input File <==

--------------------------------------------------------------------------
# density-fitted hartree fock energies and gradients with 6-31g
molecule h20 {
0 1
O 0.0000000000 0.0000000000 0.0000000000
H 0.0000000000 0.0000000000 1.1000000000
H 0.0000000000 0.6500000000 -1.1258330249
}

set basis 6-31g

gradient('hf')
--------------------------------------------------------------------------

    Molecular point group: cs
  Charge       = 0
  Multiplicity = 1
  Basis Set: 6-31G
    Blend: 6-31G
  Basis Set: (6-31G AUX)
    Blend: CC-PVDZ-JKFIT

    Orbital Energies (a.u.)
    -----------------------

    Doubly Occupied:

       1Ap   -20.542264     2Ap    -1.219375     3Ap    -0.616713
       1App   -0.452579     4Ap    -0.448651

  @DF-RHF Final Energy:   -75.86438835251516

   => Energetics <=

    Nuclear Repulsion Energy =              7.3332483284189500
    One-Electron Energy =                -119.8361095901751554
    Two-Electron Energy =                  36.6384729092410382
    Total Energy =                        -75.8643883525151637
    Molecular point group: cs

    Geometry (in Angstrom), charge = 0, multiplicity = 1:

       Center              X                  Y                   Z               Mass
    ------------   -----------------  -----------------  -----------------  -----------------
           O          0.036372333814    -0.001445549854     0.000000000000    15.994914619560
           H          0.036372333814    -1.101445549854     0.000000000000     1.007825032070
           H         -0.613627666186     1.124387475046     0.000000000000     1.007825032070

  Basis Set: 6-31G
    Blend: 6-31G
  Basis Set: (6-31G AUX)
    Blend: CC-PVDZ-JKFIT

  -Total Gradient:
     Atom            X                  Y                   Z
    ------   -----------------  -----------------  -----------------
       1        0.008004470824    -0.034702267669     0.000000000000
       2        0.036775386114    -0.105093988441     0.000000000000
       3       -0.044779856937     0.139796256110     0.000000000000

*** Psi4 exiting successfully. Buy a developer a beer!
