                               Psi4 1.2a1.dev429

  ==> Input File <==

--------------------------------------------------------------------------
# density-fitted hartree fock energies and gradients with 6-31g
molecule h2o {
0 1
O 0.0000000000 0.0000000000 0.0000000000
H 0.0000000000 0.0000000000 0.9000000000
H 0.0000000000 0.8863269777 -0.1562833599
}

set basis 6-31g

gradient('mp2')
--------------------------------------------------------------------------

    Molecular point group: c2v
  Charge       = 0
  Multiplicity = 1
  Basis Set: 6-31G
    Blend: 6-31G
  Basis Set: (6-31G AUX)
    Blend: CC-PVDZ-JKFIT

    Orbital Energies (a.u.)
    -----------------------

    Doubly Occupied:

       1A1   -20.551866     2A1    -1.395410     1B2    -0.734318
       3A1    -0.577971     1B1    -0.506933

  @DF-RHF Final Energy:   -75.97406880684949

   => Energetics <=

    Nuclear Repulsion Energy =              9.7913680335709472
    One-Electron Energy =                -123.9978769129081542
    Two-Electron Energy =                  38.2324400724877265
    Total Energy =                        -75.9740688068494876
  Basis Set: (6-31G AUX)
    Blend: CC-PVDZ-RI
    Molecular point group: c2v

    Geometry (in Angstrom), charge = 0, multiplicity = 1:

       Center              X                  Y                   Z               Mass
    ------------   -----------------  -----------------  -----------------  -----------------
           O          0.000000000000     0.000000000000    -0.064743744491    15.994914619560
           H          0.000000000000    -0.689439998803     0.513765104223     1.007825032070
           H         -0.000000000000     0.689439998803     0.513765104223     1.007825032070

  Basis Set: 6-31G
    Blend: 6-31G
  Basis Set: (6-31G AUX)
    Blend: CC-PVDZ-JKFIT
  Basis Set: (6-31G AUX)
    Blend: CC-PVDZ-JKFIT
	 Reference Energy          =     -75.9740688068494876 [Eh]
	 Singles Energy            =      -0.0000000000000000 [Eh]
	 Same-Spin Energy          =      -0.0288847574926964 [Eh]
	 Opposite-Spin Energy      =      -0.0948869386291822 [Eh]
	 Correlation Energy        =      -0.1237716961218785 [Eh]
	 Total Energy              =     -76.0978405029713656 [Eh]

	 ================> DF-SCS-MP2 Energies <==================
	-----------------------------------------------------------
	 SCS Same-Spin Scale       =       0.3333333333333333 [-]
	 SCS Opposite-Spin Scale   =       1.2000000000000000 [-]
	 SCS Same-Spin Energy      =      -0.0096282524975655 [Eh]
	 SCS Opposite-Spin Energy  =      -0.1138643263550186 [Eh]
	 SCS Correlation Energy    =      -0.1234925788525841 [Eh]
	 SCS Total Energy          =     -76.0975613857020647 [Eh]
	-----------------------------------------------------------

  -Total Gradient:
     Atom            X                  Y                   Z
    ------   -----------------  -----------------  -----------------
       1       -0.000000000000    -0.000000000017     0.087300342755
       2        0.000000000000     0.092912486559    -0.043650171383
       3        0.000000000000    -0.092912486542    -0.043650171372

*** Psi4 exiting successfully. Buy a developer a beer!
