                               Psi4 1.2a1.dev429

  ==> Input File <==

--------------------------------------------------------------------------
# density-fitted hartree fock energies and gradients with 6-31g
molecule h2o {
0 1
O 0.0000000000 0.0000000000 0.0000000000
H 0.0000000000 0.0000000000 0.9000000000
H 0.0000000000 0.9641814145 -1.1490666647
}

set basis 6-31g

gradient('mp2')
--------------------------------------------------------------------------

    Molecular point group: cs
  Charge       = 0
  Multiplicity = 1
  Basis Set: 6-31G
    Blend: 6-31G
  Basis Set: (6-31G AUX)
    Blend: CC-PVDZ-JKFIT

    Orbital Energies (a.u.)
    -----------------------

    Doubly Occupied:

       1Ap   -20.548289     2Ap    -1.276659     3Ap    -0.636653
       1App   -0.467124     4Ap    -0.451499

  @DF-RHF Final Energy:   -75.83801828972113

   => Energetics <=

    Nuclear Repulsion Energy =              7.7597515665436525
    One-Electron Energy =                -120.4350900842316037
    Two-Electron Energy =                  36.8373202279668206
    Total Energy =                        -75.8380182897211341
  Basis Set: (6-31G AUX)
    Blend: CC-PVDZ-RI
    Molecular point group: cs

    Geometry (in Angstrom), charge = 0, multiplicity = 1:

       Center              X                  Y                   Z               Mass
    ------------   -----------------  -----------------  -----------------  -----------------
           O          0.053953120408    -0.013937132108     0.000000000000    15.994914619560
           H          0.053953120408    -0.913937132108     0.000000000000     1.007825032070
           H         -0.910228294092     1.135129532592     0.000000000000     1.007825032070

  Basis Set: 6-31G
    Blend: 6-31G
  Basis Set: (6-31G AUX)
    Blend: CC-PVDZ-JKFIT
  Basis Set: (6-31G AUX)
    Blend: CC-PVDZ-JKFIT
	 Reference Energy          =     -75.8380182897211341 [Eh]
	 Singles Energy            =      -0.0000000000000000 [Eh]
	 Same-Spin Energy          =      -0.0335659271062459 [Eh]
	 Opposite-Spin Energy      =      -0.1136037701826553 [Eh]
	 Correlation Energy        =      -0.1471696972889012 [Eh]
	 Total Energy              =     -75.9851879870100362 [Eh]

	 ================> DF-SCS-MP2 Energies <==================
	-----------------------------------------------------------
	 SCS Same-Spin Scale       =       0.3333333333333333 [-]
	 SCS Opposite-Spin Scale   =       1.2000000000000000 [-]
	 SCS Same-Spin Energy      =      -0.0111886423687486 [Eh]
	 SCS Opposite-Spin Energy  =      -0.1363245242191863 [Eh]
	 SCS Correlation Energy    =      -0.1475131665879350 [Eh]
	 SCS Total Energy          =     -75.9855314563090758 [Eh]
	-----------------------------------------------------------

  -Total Gradient:
     Atom            X                  Y                   Z
    ------   -----------------  -----------------  -----------------
       1       -0.000663065166    -0.200440069442    -0.000000000000
       2        0.048858885352     0.097395968159     0.000000000000
       3       -0.048195820186     0.103044101283    -0.000000000000

*** Psi4 exiting successfully. Buy a developer a beer!
