                               Psi4 1.2a1.dev429

  ==> Input File <==

--------------------------------------------------------------------------
# density-fitted MP2 energies and gradients with 6-31g

molecule h20 {
-1 1
C 0.0000000000 0.0000000000 0.0000000000
X 0.0000000000 0.0000000000 1.0000000000
H 0.0000000000 0.7983235560 -0.7983235560
H 0.6913684799 -0.3991617780 -0.7983235560
H -0.6913684799 -0.3991617780 -0.7983235560
}

set reference rhf
set basis 6-31g

gradient('mp2')
--------------------------------------------------------------------------

    Molecular point group: cs
  Charge       = -1
  Multiplicity = 1
  Basis Set: 6-31G
    Blend: 6-31G
  Basis Set: (6-31G AUX)
    Blend: CC-PVDZ-JKFIT

    Orbital Energies (a.u.)
    -----------------------

    Doubly Occupied:

       1Ap   -10.895756     2Ap    -0.647453     3Ap    -0.152212
       1App   -0.152212     4Ap    -0.060463

  @DF-RHF Final Energy:   -39.38968334292446

   => Energetics <=

    Nuclear Repulsion Energy =              9.5849458802338816
    One-Electron Energy =                 -74.1330680706859937
    Two-Electron Energy =                  25.1584388475276626
    Total Energy =                        -39.3896833429244566
  Basis Set: (6-31G AUX)
    Blend: CC-PVDZ-RI
    Molecular point group: cs

    Geometry (in Angstrom), charge = -1, multiplicity = 1:

       Center              X                  Y                   Z               Mass
    ------------   -----------------  -----------------  -----------------  -----------------
           C         -0.000000000000     0.160662654601     0.000000000000    12.000000000000
           H         -0.399161777985    -0.637660901399     0.691368479927     1.007825032070
           H         -0.399161777985    -0.637660901399    -0.691368479927     1.007825032070
           H          0.798323555969    -0.637660901399     0.000000000000     1.007825032070

  Basis Set: 6-31G
    Blend: 6-31G
  Basis Set: (6-31G AUX)
    Blend: CC-PVDZ-JKFIT
  Basis Set: (6-31G AUX)
    Blend: CC-PVDZ-JKFIT
	 Reference Energy          =     -39.3896833429244566 [Eh]
	 Singles Energy            =      -0.0000000000000000 [Eh]
	 Same-Spin Energy          =      -0.0180319429993159 [Eh]
	 Opposite-Spin Energy      =      -0.0856909660320250 [Eh]
	 Correlation Energy        =      -0.1037229090313409 [Eh]
	 Total Energy              =     -39.4934062519557969 [Eh]

	 ================> DF-SCS-MP2 Energies <==================
	-----------------------------------------------------------
	 SCS Same-Spin Scale       =       0.3333333333333333 [-]
	 SCS Opposite-Spin Scale   =       1.2000000000000000 [-]
	 SCS Same-Spin Energy      =      -0.0060106476664386 [Eh]
	 SCS Opposite-Spin Energy  =      -0.1028291592384300 [Eh]
	 SCS Correlation Energy    =      -0.1088398069048687 [Eh]
	 SCS Total Energy          =     -39.4985231498293246 [Eh]
	-----------------------------------------------------------

  -Total Gradient:
     Atom            X                  Y                   Z
    ------   -----------------  -----------------  -----------------
       1        0.000000000029     0.031295352184    -0.000000000021
       2        0.031301991250    -0.010431784062    -0.054216639123
       3        0.031301991250    -0.010431784054     0.054216639138
       4       -0.062603982529    -0.010431784068     0.000000000007

*** Psi4 exiting successfully. Buy a developer a beer!
