                               Psi4 1.3.1 release

  ==> Input File <==

--------------------------------------------------------------------------
# density fitted MP2
molecule h2o {
0 1
H 0.0000000000 0.0000000000 1.2000000000
H 0.0000000000 1.0278159799 -0.4257353185
O 0.0000000000 0.0000000000 0.0000000000
}

set basis 6-31g
energy('mp2')

--------------------------------------------------------------------------

    Molecular point group: cs

    Geometry (in Angstrom), charge = 0, multiplicity = 1:

       Center              X                  Y                   Z               Mass
    ------------   -----------------  -----------------  -----------------  -----------------
         H            0.057513947577    -1.156674133139     0.000000000000     1.007825032230
         H           -0.970302032323     0.469061185361     0.000000000000     1.007825032230
         O            0.057513947577     0.043325866861     0.000000000000    15.994914619570

  Charge       = 0
  Multiplicity = 1
  Basis Set: 6-31G
    Blend: 6-31G
  Basis Set: (6-31G AUX)
    Blend: CC-PVDZ-JKFIT

    Orbital Energies [Eh]
    ---------------------

    Doubly Occupied:

       1Ap   -20.590150     2Ap    -1.269150     3Ap    -0.622634
       4Ap    -0.516051     1App   -0.490316

  @DF-RHF Final Energy:   -75.92707383543835

   => Energetics <=

    Nuclear Repulsion Energy =              7.6082949981268335
    One-Electron Energy =                -120.0941355944311937
    Two-Electron Energy =                  36.5587667608660070
    Total Energy =                        -75.9270738354383496

  Dipole Moment: [D]
     X:    -2.0680      Y:    -1.4105      Z:     0.0000     Total:     2.5032

  Basis Set: (6-31G AUX)
    Blend: CC-PVDZ-RI
	 Reference Energy          =     -75.9270738354383496 [Eh]
	 Singles Energy            =      -0.0000000000000000 [Eh]
	 Same-Spin Energy          =      -0.0338787704645519 [Eh]
	 Opposite-Spin Energy      =      -0.1124410973030868 [Eh]
	 Correlation Energy        =      -0.1463198677676387 [Eh]
	 Total Energy              =     -76.0733937032059941 [Eh]

	 ================> DF-SCS-MP2 Energies <==================
	-----------------------------------------------------------
	 SCS Same-Spin Scale       =       0.3333333333333333 [-]
	 SCS Opposite-Spin Scale   =       1.2000000000000000 [-]
	 SCS Same-Spin Energy      =      -0.0112929234881840 [Eh]
	 SCS Opposite-Spin Energy  =      -0.1349293167637041 [Eh]
	 SCS Correlation Energy    =      -0.1462222402518881 [Eh]
	 SCS Total Energy          =     -76.0732960756902372 [Eh]
	-----------------------------------------------------------

*** Psi4 exiting successfully. Buy a developer a beer!
