                               Psi4 1.2a1.dev429

  ==> Input File <==

--------------------------------------------------------------------------
# density-fitted hartree fock energies and gradients with 6-31g
molecule h20 {
0 1
O 0.0000000000 0.0000000000 0.0000000000
H 0.0000000000 0.0000000000 1.4000000000
H 0.0000000000 0.8863269777 -0.1562833599
}

set basis 6-31g

gradient('hf')
--------------------------------------------------------------------------

    Molecular point group: cs
  Charge       = 0
  Multiplicity = 1
  Basis Set: 6-31G
    Blend: 6-31G
  Basis Set: (6-31G AUX)
    Blend: CC-PVDZ-JKFIT

    Orbital Energies (a.u.)
    -----------------------

    Doubly Occupied:

       1Ap   -20.592986     2Ap    -1.321542     3Ap    -0.645979
       4Ap    -0.513710     1App   -0.502061

  @DF-RHF Final Energy:   -75.89347374227629

   => Energetics <=

    Nuclear Repulsion Energy =              8.0231358687461949
    One-Electron Energy =                -120.6806630169659798
    Two-Electron Energy =                  36.7640534059434998
    Total Energy =                        -75.8934737422762851
    Molecular point group: cs

    Geometry (in Angstrom), charge = 0, multiplicity = 1:

       Center              X                  Y                   Z               Mass
    ------------   -----------------  -----------------  -----------------  -----------------
           O          0.049596585694     0.069595195082     0.000000000000    15.994914619560
           H          0.049596585694    -1.330404804918     0.000000000000     1.007825032070
           H         -0.836730392006     0.225878554982     0.000000000000     1.007825032070

  Basis Set: 6-31G
    Blend: 6-31G
  Basis Set: (6-31G AUX)
    Blend: CC-PVDZ-JKFIT

  -Total Gradient:
     Atom            X                  Y                   Z
    ------   -----------------  -----------------  -----------------
       1       -0.073076932795     0.148279505879     0.000000000000
       2       -0.002404318200    -0.131172372937     0.000000000000
       3        0.075481250995    -0.017107132942     0.000000000000

*** Psi4 exiting successfully. Buy a developer a beer!
