                               Psi4 1.2a1.dev429

  ==> Input File <==

--------------------------------------------------------------------------
# density-fitted hartree fock energies and gradients with 6-31g
molecule h20 {
0 1
O 0.0000000000 0.0000000000 0.0000000000
H 0.0000000000 0.0000000000 0.7000000000
H 0.0000000000 0.6128355545 -0.5142300877
}

set basis 6-31g

gradient('hf')
--------------------------------------------------------------------------

    Molecular point group: cs
  Charge       = 0
  Multiplicity = 1
  Basis Set: 6-31G
    Blend: 6-31G
  Basis Set: (6-31G AUX)
    Blend: CC-PVDZ-JKFIT

    Orbital Energies (a.u.)
    -----------------------

    Doubly Occupied:

       1Ap   -20.509280     2Ap    -1.465196     3Ap    -0.902511
       4Ap    -0.547358     1App   -0.514089

  @DF-RHF Final Energy:   -75.82714770676392

   => Energetics <=

    Nuclear Repulsion Energy =             11.7285786233952898
    One-Electron Energy =                -127.2345816184365503
    Two-Electron Energy =                  39.6788552882773473
    Total Energy =                        -75.8271477067639097
    Molecular point group: cs

    Geometry (in Angstrom), charge = 0, multiplicity = 1:

       Center              X                  Y                   Z               Mass
    ------------   -----------------  -----------------  -----------------  -----------------
           O          0.034292706709     0.010395208096     0.000000000000    15.994914619560
           H          0.034292706709    -0.689604791904     0.000000000000     1.007825032070
           H         -0.578542847791     0.524625295796     0.000000000000     1.007825032070

  Basis Set: 6-31G
    Blend: 6-31G
  Basis Set: (6-31G AUX)
    Blend: CC-PVDZ-JKFIT

  -Total Gradient:
     Atom            X                  Y                   Z
    ------   -----------------  -----------------  -----------------
       1       -0.227042506565    -0.552748808871     0.000000000000
       2        0.012278808001     0.718931709600     0.000000000000
       3        0.214763698564    -0.166182900730     0.000000000000

*** Psi4 exiting successfully. Buy a developer a beer!
