                               Psi4 1.2a1.dev429

  ==> Input File <==

--------------------------------------------------------------------------
# density-fitted hartree fock energies and gradients with 6-31g
molecule h2o {
0 1
O 0.0000000000 0.0000000000 0.0000000000
H 0.0000000000 0.0000000000 1.3000000000
H 0.0000000000 0.9848077530 -0.1736481777
}

set basis 6-31g

gradient('mp2')
--------------------------------------------------------------------------

    Molecular point group: cs
  Charge       = 0
  Multiplicity = 1
  Basis Set: 6-31G
    Blend: 6-31G
  Basis Set: (6-31G AUX)
    Blend: CC-PVDZ-JKFIT

    Orbital Energies (a.u.)
    -----------------------

    Doubly Occupied:

       1Ap   -20.598049     2Ap    -1.295324     3Ap    -0.626785
       4Ap    -0.527765     1App   -0.499815

  @DF-RHF Final Energy:   -75.92064979068061

   => Energetics <=

    Nuclear Repulsion Energy =              7.7884541704936350
    One-Electron Energy =                -120.3227311440054024
    Two-Electron Energy =                  36.6136271828311521
    Total Energy =                        -75.9206497906806135
  Basis Set: (6-31G AUX)
    Blend: CC-PVDZ-RI
    Molecular point group: cs

    Geometry (in Angstrom), charge = 0, multiplicity = 1:

       Center              X                  Y                   Z               Mass
    ------------   -----------------  -----------------  -----------------  -----------------
           O          0.055107317437     0.063027760726     0.000000000000    15.994914619560
           H          0.055107317437    -1.236972239274     0.000000000000     1.007825032070
           H         -0.929700435563     0.236675938426     0.000000000000     1.007825032070

  Basis Set: 6-31G
    Blend: 6-31G
  Basis Set: (6-31G AUX)
    Blend: CC-PVDZ-JKFIT
  Basis Set: (6-31G AUX)
    Blend: CC-PVDZ-JKFIT
	 Reference Energy          =     -75.9206497906806135 [Eh]
	 Singles Energy            =      -0.0000000000000000 [Eh]
	 Same-Spin Energy          =      -0.0336258295838562 [Eh]
	 Opposite-Spin Energy      =      -0.1131849829806347 [Eh]
	 Correlation Energy        =      -0.1468108125644909 [Eh]
	 Total Energy              =     -76.0674606032451095 [Eh]

	 ================> DF-SCS-MP2 Energies <==================
	-----------------------------------------------------------
	 SCS Same-Spin Scale       =       0.3333333333333333 [-]
	 SCS Opposite-Spin Scale   =       1.2000000000000000 [-]
	 SCS Same-Spin Energy      =      -0.0112086098612854 [Eh]
	 SCS Opposite-Spin Energy  =      -0.1358219795767616 [Eh]
	 SCS Correlation Energy    =      -0.1470305894380471 [Eh]
	 SCS Total Energy          =     -76.0676803801186594 [Eh]
	-----------------------------------------------------------

  -Total Gradient:
     Atom            X                  Y                   Z
    ------   -----------------  -----------------  -----------------
       1        0.009084442498     0.104095320980     0.000000000000
       2       -0.000273095760    -0.105288503313    -0.000000000000
       3       -0.008811346738     0.001193182332    -0.000000000000

*** Psi4 exiting successfully. Buy a developer a beer!
