                               Psi4 1.2a1.dev429

  ==> Input File <==

--------------------------------------------------------------------------
# density-fitted hartree fock energies and gradients with 6-31g
molecule h20 {
0 1
O 0.0000000000 0.0000000000 0.0000000000
H 0.0000000000 0.0000000000 0.9000000000
H 0.0000000000 0.0000000000 -0.8000000000
}

set basis 6-31g

gradient('hf')
--------------------------------------------------------------------------

    Molecular point group: c2v
  Charge       = 0
  Multiplicity = 1
  Basis Set: 6-31G
    Blend: 6-31G
  Basis Set: (6-31G AUX)
    Blend: CC-PVDZ-JKFIT

    Orbital Energies (a.u.)
    -----------------------

    Doubly Occupied:

       1A1   -20.499048     2A1    -1.358669     3A1    -0.853713
       1B1    -0.486504     1B2    -0.486504

  @DF-RHF Final Energy:   -75.91734197245582

   => Energetics <=

    Nuclear Repulsion Energy =             10.3068502065241834
    One-Electron Energy =                -125.0795085298189662
    Two-Electron Energy =                  38.8553163508389616
    Total Energy =                        -75.9173419724558158
    Molecular point group: c2v

    Geometry (in Angstrom), charge = 0, multiplicity = 1:

       Center              X                  Y                   Z               Mass
    ------------   -----------------  -----------------  -----------------  -----------------
           O          0.000000000000     0.000000000000    -0.005595743664    15.994914619560
           H          0.000000000000     0.000000000000     0.894404256336     1.007825032070
           H          0.000000000000     0.000000000000    -0.805595743664     1.007825032070

  Basis Set: 6-31G
    Blend: 6-31G
  Basis Set: (6-31G AUX)
    Blend: CC-PVDZ-JKFIT

  -Total Gradient:
     Atom            X                  Y                   Z
    ------   -----------------  -----------------  -----------------
       1        0.000000000000     0.000000000000    -0.232874365886
       2        0.000000000000     0.000000000000    -0.029324041748
       3       -0.000000000000     0.000000000000     0.262198407635

*** Psi4 exiting successfully. Buy a developer a beer!
