                               Psi4 1.2a1.dev429

  ==> Input File <==

--------------------------------------------------------------------------
# density-fitted hartree fock energies and gradients with 6-31g
molecule h2o {
0 1
O 0.0000000000 0.0000000000 0.0000000000
H 0.0000000000 0.0000000000 0.9000000000
H 0.0000000000 0.7713451316 -0.9192533317
}

set basis 6-31g

gradient('mp2')
--------------------------------------------------------------------------

    Molecular point group: cs
  Charge       = 0
  Multiplicity = 1
  Basis Set: 6-31G
    Blend: 6-31G
  Basis Set: (6-31G AUX)
    Blend: CC-PVDZ-JKFIT

    Orbital Energies (a.u.)
    -----------------------

    Doubly Occupied:

       1Ap   -20.536990     2Ap    -1.293884     3Ap    -0.695932
       4Ap    -0.481457     1App   -0.472702

  @DF-RHF Final Energy:   -75.91998229920057

   => Energetics <=

    Nuclear Repulsion Energy =              8.4994449548411541
    One-Electron Energy =                -121.8769255515718299
    Two-Electron Energy =                  37.4574982975301083
    Total Energy =                        -75.9199822992005693
  Basis Set: (6-31G AUX)
    Blend: CC-PVDZ-RI
    Molecular point group: cs

    Geometry (in Angstrom), charge = 0, multiplicity = 1:

       Center              X                  Y                   Z               Mass
    ------------   -----------------  -----------------  -----------------  -----------------
           O          0.043162496326    -0.001077367089     0.000000000000    15.994914619560
           H          0.043162496326    -0.901077367089     0.000000000000     1.007825032070
           H         -0.728182635274     0.918175964611     0.000000000000     1.007825032070

  Basis Set: 6-31G
    Blend: 6-31G
  Basis Set: (6-31G AUX)
    Blend: CC-PVDZ-JKFIT
  Basis Set: (6-31G AUX)
    Blend: CC-PVDZ-JKFIT
	 Reference Energy          =     -75.9199822992005693 [Eh]
	 Singles Energy            =      -0.0000000000000000 [Eh]
	 Same-Spin Energy          =      -0.0318160427306768 [Eh]
	 Opposite-Spin Energy      =      -0.1023033246371556 [Eh]
	 Correlation Energy        =      -0.1341193673678323 [Eh]
	 Total Energy              =     -76.0541016665683998 [Eh]

	 ================> DF-SCS-MP2 Energies <==================
	-----------------------------------------------------------
	 SCS Same-Spin Scale       =       0.3333333333333333 [-]
	 SCS Opposite-Spin Scale   =       1.2000000000000000 [-]
	 SCS Same-Spin Energy      =      -0.0106053475768923 [Eh]
	 SCS Opposite-Spin Energy  =      -0.1227639895645867 [Eh]
	 SCS Correlation Energy    =      -0.1333693371414789 [Eh]
	 SCS Total Energy          =     -76.0533516363420432 [Eh]
	-----------------------------------------------------------

  -Total Gradient:
     Atom            X                  Y                   Z
    ------   -----------------  -----------------  -----------------
       1        0.013932302136    -0.196841452942    -0.000000000000
       2        0.041041055688     0.083440345691     0.000000000000
       3       -0.054973357824     0.113401107252     0.000000000000

*** Psi4 exiting successfully. Buy a developer a beer!
