                               Psi4 1.3.1 release

  ==> Input File <==

--------------------------------------------------------------------------
# density fitted hartree fock
molecule h2o {
0 1
H 0.0000000000 0.0000000000 0.9000000000
H 0.0000000000 0.9000000000 0.0000000000
O 0.0000000000 0.0000000000 0.0000000000
}

set basis 6-31g
energy('hf')

--------------------------------------------------------------------------

    Molecular point group: c2v

    Geometry (in Angstrom), charge = 0, multiplicity = 1:

       Center              X                  Y                   Z               Mass
    ------------   -----------------  -----------------  -----------------  -----------------
         H            0.000000000000    -0.636396103068     0.565173913832     1.007825032230
         H           -0.000000000000     0.636396103068     0.565173913832     1.007825032230
         O            0.000000000000     0.000000000000    -0.071222189236    15.994914619570

  Charge       = 0
  Multiplicity = 1
  Basis Set: 6-31G
    Blend: 6-31G
  Basis Set: (6-31G AUX)
    Blend: CC-PVDZ-JKFIT

    Orbital Energies [Eh]
    ---------------------

    Doubly Occupied:

       1A1   -20.557752     2A1    -1.409191     1B2    -0.711144
       3A1    -0.598174     1B1    -0.510891

  @DF-RHF Final Energy:   -75.96224202147043

   => Energetics <=

    Nuclear Repulsion Energy =              9.8233557387045991
    One-Electron Energy =                -123.9969012847904395
    Two-Electron Energy =                  38.2113035246154169
    Total Energy =                        -75.9622420214704306

  Dipole Moment: [D]
     X:     0.0000      Y:     0.0000      Z:     2.8259     Total:     2.8259

*** Psi4 exiting successfully. Buy a developer a beer!
