                               Psi4 1.2a1.dev429

  ==> Input File <==

--------------------------------------------------------------------------
# density-fitted hartree fock energies and gradients with 6-31g
molecule h20 {
0 1
O 0.0000000000 0.0000000000 0.0000000000
H 0.0000000000 0.0000000000 1.4000000000
H 0.0000000000 0.2394141003 -0.6577848346
}

set basis 6-31g

gradient('hf')
--------------------------------------------------------------------------

    Molecular point group: cs
  Charge       = 0
  Multiplicity = 1
  Basis Set: 6-31G
    Blend: 6-31G
  Basis Set: (6-31G AUX)
    Blend: CC-PVDZ-JKFIT

    Orbital Energies (a.u.)
    -----------------------

    Doubly Occupied:

       1Ap   -20.493093     2Ap    -1.346751     3Ap    -0.694119
       1App   -0.453938     4Ap    -0.450092

  @DF-RHF Final Energy:   -75.71551882992878

   => Energetics <=

    Nuclear Repulsion Energy =              9.3270449446692520
    One-Electron Energy =                -123.2091429839303203
    Two-Electron Energy =                  38.1665792093322835
    Total Energy =                        -75.7155188299287829
    Molecular point group: cs

    Geometry (in Angstrom), charge = 0, multiplicity = 1:

       Center              X                  Y                   Z               Mass
    ------------   -----------------  -----------------  -----------------  -----------------
           O          0.013396999347     0.041532458088     0.000000000000    15.994914619560
           H          0.013396999347    -1.358467541912     0.000000000000     1.007825032070
           H         -0.226017100953     0.699317292688     0.000000000000     1.007825032070

  Basis Set: 6-31G
    Blend: 6-31G
  Basis Set: (6-31G AUX)
    Blend: CC-PVDZ-JKFIT

  -Total Gradient:
     Atom            X                  Y                   Z
    ------   -----------------  -----------------  -----------------
       1       -0.315376198229     0.837273162265     0.000000000000
       2        0.022344422319    -0.162836414142     0.000000000000
       3        0.293031775910    -0.674436748123     0.000000000000

*** Psi4 exiting successfully. Buy a developer a beer!
