                               Psi4 1.2a1.dev429

  ==> Input File <==

--------------------------------------------------------------------------
# density-fitted hartree fock energies and gradients with 6-31g
molecule h20 {
0 1
O 0.0000000000 0.0000000000 0.0000000000
H 0.0000000000 0.0000000000 1.2000000000
H 0.0000000000 1.1276311449 -0.4104241720
}

set basis 6-31g

gradient('hf')
--------------------------------------------------------------------------

    Molecular point group: c2v
  Charge       = 0
  Multiplicity = 1
  Basis Set: 6-31G
    Blend: 6-31G
  Basis Set: (6-31G AUX)
    Blend: CC-PVDZ-JKFIT

    Orbital Energies (a.u.)
    -----------------------

    Doubly Occupied:

       1A1   -20.600461     2A1    -1.258464     1B2    -0.601519
       3A1    -0.514847     1B1    -0.491869

  @DF-RHF Final Energy:   -75.90919926694413

   => Energetics <=

    Nuclear Repulsion Energy =              7.3248653184781416
    One-Electron Energy =                -119.5338084181297376
    Two-Electron Energy =                  36.2997438327074633
    Total Energy =                        -75.9091992669441282
    Molecular point group: c2v

    Geometry (in Angstrom), charge = 0, multiplicity = 1:

       Center              X                  Y                   Z               Mass
    ------------   -----------------  -----------------  -----------------  -----------------
           O          0.000000000000     0.000000000000    -0.077030081021    15.994914619560
           H          0.000000000000    -0.982982453138     0.611261642580     1.007825032070
           H         -0.000000000000     0.982982453138     0.611261642580     1.007825032070

  Basis Set: 6-31G
    Blend: 6-31G
  Basis Set: (6-31G AUX)
    Blend: CC-PVDZ-JKFIT

  -Total Gradient:
     Atom            X                  Y                   Z
    ------   -----------------  -----------------  -----------------
       1       -0.000000000000     0.000000000000    -0.124783501023
       2        0.000000000000    -0.106363426083     0.062391750512
       3       -0.000000000000     0.106363426083     0.062391750512

*** Psi4 exiting successfully. Buy a developer a beer!
