                               Psi4 1.2a1.dev429

  ==> Input File <==

--------------------------------------------------------------------------
# density-fitted hartree fock energies and gradients with 6-31g
molecule h2o {
0 1
O 0.0000000000 0.0000000000 0.0000000000
H 0.0000000000 0.0000000000 1.3000000000
H 0.0000000000 0.4500000000 -0.7794228634
}

set basis 6-31g

gradient('mp2')
--------------------------------------------------------------------------

    Molecular point group: cs
  Charge       = 0
  Multiplicity = 1
  Basis Set: 6-31G
    Blend: 6-31G
  Basis Set: (6-31G AUX)
    Blend: CC-PVDZ-JKFIT

    Orbital Energies (a.u.)
    -----------------------

    Doubly Occupied:

       1Ap   -20.525768     2Ap    -1.272632     3Ap    -0.670804
       1App   -0.459168     4Ap    -0.458579

  @DF-RHF Final Energy:   -75.87992485634349

   => Energetics <=

    Nuclear Repulsion Energy =              8.2089978005444859
    One-Electron Energy =                -121.4039445518169487
    Two-Electron Energy =                  37.3150218949289751
    Total Energy =                        -75.8799248563434929
  Basis Set: (6-31G AUX)
    Blend: CC-PVDZ-RI
    Molecular point group: cs

    Geometry (in Angstrom), charge = 0, multiplicity = 1:

       Center              X                  Y                   Z               Mass
    ------------   -----------------  -----------------  -----------------  -----------------
           O          0.025180846486     0.029130162136     0.000000000000    15.994914619560
           H          0.025180846486    -1.270869837864     0.000000000000     1.007825032070
           H         -0.424819153514     0.808553025536     0.000000000000     1.007825032070

  Basis Set: 6-31G
    Blend: 6-31G
  Basis Set: (6-31G AUX)
    Blend: CC-PVDZ-JKFIT
  Basis Set: (6-31G AUX)
    Blend: CC-PVDZ-JKFIT
	 Reference Energy          =     -75.8799248563434929 [Eh]
	 Singles Energy            =      -0.0000000000000000 [Eh]
	 Same-Spin Energy          =      -0.0324763244292987 [Eh]
	 Opposite-Spin Energy      =      -0.1044531654709241 [Eh]
	 Correlation Energy        =      -0.1369294899002228 [Eh]
	 Total Energy              =     -76.0168543462437185 [Eh]

	 ================> DF-SCS-MP2 Energies <==================
	-----------------------------------------------------------
	 SCS Same-Spin Scale       =       0.3333333333333333 [-]
	 SCS Opposite-Spin Scale   =       1.2000000000000000 [-]
	 SCS Same-Spin Energy      =      -0.0108254414764329 [Eh]
	 SCS Opposite-Spin Energy  =      -0.1253437985651089 [Eh]
	 SCS Correlation Energy    =      -0.1361692400415419 [Eh]
	 SCS Total Energy          =     -76.0160940963850322 [Eh]
	-----------------------------------------------------------

  -Total Gradient:
     Atom            X                  Y                   Z
    ------   -----------------  -----------------  -----------------
       1       -0.113224046376     0.181301047267     0.000000000000
       2        0.031777729546    -0.132034218913    -0.000000000000
       3        0.081446316829    -0.049266828354    -0.000000000000

*** Psi4 exiting successfully. Buy a developer a beer!
