                               Psi4 1.2a1.dev429

  ==> Input File <==

--------------------------------------------------------------------------
# density-fitted hartree fock energies and gradients with 6-31g
molecule h20 {
0 1
O 0.0000000000 0.0000000000 0.0000000000
H 0.0000000000 0.0000000000 0.8000000000
H 0.0000000000 0.3762221577 -1.0336618829
}

set basis 6-31g

gradient('hf')
--------------------------------------------------------------------------

    Molecular point group: cs
  Charge       = 0
  Multiplicity = 1
  Basis Set: 6-31G
    Blend: 6-31G
  Basis Set: (6-31G AUX)
    Blend: CC-PVDZ-JKFIT

    Orbital Energies (a.u.)
    -----------------------

    Doubly Occupied:

       1Ap   -20.506349     2Ap    -1.325940     3Ap    -0.764767
       4Ap    -0.474005     1App   -0.470900

  @DF-RHF Final Energy:   -75.89693268166786

   => Energetics <=

    Nuclear Repulsion Energy =              9.4230349118979966
    One-Electron Energy =                -123.5560122539588548
    Two-Electron Energy =                  38.2360446603929915
    Total Energy =                        -75.8969326816678631
    Molecular point group: cs

    Geometry (in Angstrom), charge = 0, multiplicity = 1:

       Center              X                  Y                   Z               Mass
    ------------   -----------------  -----------------  -----------------  -----------------
           O          0.021052427551    -0.013075120007     0.000000000000    15.994914619560
           H          0.021052427551    -0.813075120007     0.000000000000     1.007825032070
           H         -0.355169730149     1.020586762893     0.000000000000     1.007825032070

  Basis Set: 6-31G
    Blend: 6-31G
  Basis Set: (6-31G AUX)
    Blend: CC-PVDZ-JKFIT

  -Total Gradient:
     Atom            X                  Y                   Z
    ------   -----------------  -----------------  -----------------
       1       -0.002196052790    -0.411074605851     0.000000000000
       2        0.028866909242     0.276414341934     0.000000000000
       3       -0.026670856453     0.134660263917     0.000000000000

*** Psi4 exiting successfully. Buy a developer a beer!
