                               Psi4 1.2a1.dev429

  ==> Input File <==

--------------------------------------------------------------------------
# density-fitted hartree fock energies and gradients with 6-31g
molecule h2o {
0 1
O 0.0000000000 0.0000000000 0.0000000000
H 0.0000000000 0.0000000000 1.1000000000
H 0.0000000000 0.2431074487 -1.3787308542
}

set basis 6-31g

gradient('mp2')
--------------------------------------------------------------------------

    Molecular point group: cs
  Charge       = 0
  Multiplicity = 1
  Basis Set: 6-31G
    Blend: 6-31G
  Basis Set: (6-31G AUX)
    Blend: CC-PVDZ-JKFIT

    Orbital Energies (a.u.)
    -----------------------

    Doubly Occupied:

       1Ap   -20.508521     2Ap    -1.184249     3Ap    -0.585415
       1App   -0.424101     4Ap    -0.421473

  @DF-RHF Final Energy:   -75.81394951597365

   => Energetics <=

    Nuclear Repulsion Energy =              7.0848990033378128
    One-Electron Energy =                -119.5501808419118674
    Two-Electron Energy =                  36.6513323226004104
    Total Energy =                        -75.8139495159736470
  Basis Set: (6-31G AUX)
    Blend: CC-PVDZ-RI
    Molecular point group: cs

    Geometry (in Angstrom), charge = 0, multiplicity = 1:

       Center              X                  Y                   Z               Mass
    ------------   -----------------  -----------------  -----------------  -----------------
           O          0.013603669656    -0.015597064112     0.000000000000    15.994914619560
           H          0.013603669656    -1.115597064112     0.000000000000     1.007825032070
           H         -0.229503779044     1.363133790088     0.000000000000     1.007825032070

  Basis Set: 6-31G
    Blend: 6-31G
  Basis Set: (6-31G AUX)
    Blend: CC-PVDZ-JKFIT
  Basis Set: (6-31G AUX)
    Blend: CC-PVDZ-JKFIT
	 Reference Energy          =     -75.8139495159736470 [Eh]
	 Singles Energy            =      -0.0000000000000000 [Eh]
	 Same-Spin Energy          =      -0.0341067000815364 [Eh]
	 Opposite-Spin Energy      =      -0.1082184412469658 [Eh]
	 Correlation Energy        =      -0.1423251413285022 [Eh]
	 Total Energy              =     -75.9562746573021457 [Eh]

	 ================> DF-SCS-MP2 Energies <==================
	-----------------------------------------------------------
	 SCS Same-Spin Scale       =       0.3333333333333333 [-]
	 SCS Opposite-Spin Scale   =       1.2000000000000000 [-]
	 SCS Same-Spin Energy      =      -0.0113689000271788 [Eh]
	 SCS Opposite-Spin Energy  =      -0.1298621294963590 [Eh]
	 SCS Correlation Energy    =      -0.1412310295235378 [Eh]
	 SCS Total Energy          =     -75.9551805454971856 [Eh]
	-----------------------------------------------------------

  -Total Gradient:
     Atom            X                  Y                   Z
    ------   -----------------  -----------------  -----------------
       1       -0.028581955745    -0.043247058055    -0.000000000000
       2        0.029209577990    -0.092478346632     0.000000000000
       3       -0.000627622245     0.135725404687     0.000000000000

*** Psi4 exiting successfully. Buy a developer a beer!
