                               Psi4 1.2a1.dev429

  ==> Input File <==

--------------------------------------------------------------------------
# density-fitted hartree fock energies and gradients with 6-31g
molecule o2 {
0 3
O 0.0000000000 0.0000000000 0.0000000000
O 0.0000000000 0.0000000000 1.1252525253
}

set basis 6-31g
set reference rohf

gradient('scf')
--------------------------------------------------------------------------

    Molecular point group: d2h
  Charge       = 0
  Multiplicity = 3
  Basis Set: 6-31G
    Blend: 6-31G
  Basis Set: (6-31G AUX)
    Blend: CC-PVDZ-JKFIT

    Orbital Energies (a.u.)
    -----------------------

    Doubly Occupied:

       1Ag   -20.733470     1B1u  -20.732256     2Ag    -1.777114
       2B1u   -1.069428     1B3u   -0.752779     1B2u   -0.752779
       3Ag    -0.747334

    Singly Occupied:

       1B2g   -0.192731     1B3g   -0.192731

  @DF-ROHF Final Energy:  -149.52006343750651

   => Energetics <=

    Nuclear Repulsion Energy =             30.0975475178167109
    One-Electron Energy =                -265.0653352091737247
    Two-Electron Energy =                  85.4477242538504811
    Total Energy =                       -149.5200634375065363
    Molecular point group: d2h

    Geometry (in Angstrom), charge = 0, multiplicity = 3:

       Center              X                  Y                   Z               Mass
    ------------   -----------------  -----------------  -----------------  -----------------
           O          0.000000000000     0.000000000000    -0.562626262650    15.994914619560
           O          0.000000000000     0.000000000000     0.562626262650    15.994914619560

  Basis Set: 6-31G
    Blend: 6-31G
  Basis Set: (6-31G AUX)
    Blend: CC-PVDZ-JKFIT

  -Total Gradient:
     Atom            X                  Y                   Z
    ------   -----------------  -----------------  -----------------
       1        0.000000000000     0.000000000000     0.148815956084
       2       -0.000000000000     0.000000000000    -0.148815956084

*** Psi4 exiting successfully. Buy a developer a beer!
