                               Psi4 1.2a1.dev429

  ==> Input File <==

--------------------------------------------------------------------------
# density-fitted hartree fock energies and gradients with 6-31g
molecule o2 {
0 3
O 0.0000000000 0.0000000000 0.0000000000
O 0.0000000000 0.0000000000 1.4571428571
}

set basis 6-31g
set reference rohf

energy('scf')
--------------------------------------------------------------------------

    Molecular point group: d2h

    Geometry (in Angstrom), charge = 0, multiplicity = 3:

       Center              X                  Y                   Z               Mass
    ------------   -----------------  -----------------  -----------------  -----------------
           O          0.000000000000     0.000000000000    -0.728571428550    15.994914619560
           O          0.000000000000     0.000000000000     0.728571428550    15.994914619560

  Charge       = 0
  Multiplicity = 3
  Basis Set: 6-31G
    Blend: 6-31G
  Basis Set: (6-31G AUX)
    Blend: CC-PVDZ-JKFIT

    Orbital Energies (a.u.)
    -----------------------

    Doubly Occupied:

       1Ag   -20.784630     1B1u  -20.784219     2Ag    -1.503560
       2B1u   -1.179794     3Ag    -0.652935     1B3u   -0.635325
       1B2u   -0.635325

    Singly Occupied:

       1B2g   -0.304880     1B3g   -0.304880

  @DF-ROHF Final Energy:  -149.45766814493251

   => Energetics <=

    Nuclear Repulsion Energy =             23.2422930838522284
    One-Electron Energy =                -251.8174396993658206
    Two-Electron Energy =                  79.1174784705810907
    Total Energy =                       -149.4576681449325122
*** Psi4 exiting successfully. Buy a developer a beer!
