                               Psi4 1.2a1.dev429

  ==> Input File <==

--------------------------------------------------------------------------
# density-fitted hartree fock energies and gradients with 6-31g
molecule h20 {
0 1
O 0.0000000000 0.0000000000 0.0000000000
H 0.0000000000 0.0000000000 1.4000000000
H 0.0000000000 0.6062177826 -0.3500000000
}

set basis 6-31g

gradient('hf')
--------------------------------------------------------------------------

    Molecular point group: cs
  Charge       = 0
  Multiplicity = 1
  Basis Set: 6-31G
    Blend: 6-31G
  Basis Set: (6-31G AUX)
    Blend: CC-PVDZ-JKFIT

    Orbital Energies (a.u.)
    -----------------------

    Doubly Occupied:

       1Ap   -20.551173     2Ap    -1.400443     3Ap    -0.700566
       4Ap    -0.498486     1App   -0.494500

  @DF-RHF Final Energy:   -75.75927879909932

   => Energetics <=

    Nuclear Repulsion Energy =              9.3573381258744952
    One-Electron Energy =                -122.9428972050447442
    Two-Electron Energy =                  37.8262802800709252
    Total Energy =                        -75.7592787990993202
    Molecular point group: cs

    Geometry (in Angstrom), charge = 0, multiplicity = 1:

       Center              X                  Y                   Z               Mass
    ------------   -----------------  -----------------  -----------------  -----------------
           O          0.033922393158     0.058755308468     0.000000000000    15.994914619560
           H          0.033922393158    -1.341244691532     0.000000000000     1.007825032070
           H         -0.572295389442     0.408755308468     0.000000000000     1.007825032070

  Basis Set: 6-31G
    Blend: 6-31G
  Basis Set: (6-31G AUX)
    Blend: CC-PVDZ-JKFIT

  -Total Gradient:
     Atom            X                  Y                   Z
    ------   -----------------  -----------------  -----------------
       1       -0.675815948996     0.489910032282     0.000000000000
       2        0.015195693309    -0.143593700741     0.000000000000
       3        0.660620255687    -0.346316331541     0.000000000000

*** Psi4 exiting successfully. Buy a developer a beer!
