                               Psi4 1.2a1.dev429

  ==> Input File <==

--------------------------------------------------------------------------
# density-fitted hartree fock energies and gradients with 6-31g
molecule o2 {
0 3
O 0.0000000000 0.0000000000 0.0000000000
O 0.0000000000 0.0000000000 0.8000000000
}

set basis 6-31g
set reference rohf

gradient('scf')
--------------------------------------------------------------------------

    Molecular point group: d2h
  Charge       = 0
  Multiplicity = 3
  Basis Set: 6-31G
    Blend: 6-31G
  Basis Set: (6-31G AUX)
    Blend: CC-PVDZ-JKFIT

    Orbital Energies (a.u.)
    -----------------------

    Doubly Occupied:

       1Ag   -20.728841     1B1u  -20.714108     2Ag    -2.237263
       1B2u   -1.011212     1B3u   -1.011212     2B1u   -0.941806
       3Ag    -0.842780

    Singly Occupied:

       1B2g    0.031213     1B3g    0.031213

  @DF-ROHF Final Energy:  -148.73782686689646

   => Energetics <=

    Nuclear Repulsion Energy =             42.3341766872000065
    One-Electron Energy =                -286.5809937215900050
    Two-Electron Energy =                  95.5089901674935646
    Total Energy =                       -148.7378268668964552
    Molecular point group: d2h

    Geometry (in Angstrom), charge = 0, multiplicity = 3:

       Center              X                  Y                   Z               Mass
    ------------   -----------------  -----------------  -----------------  -----------------
           O          0.000000000000     0.000000000000    -0.400000000000    15.994914619560
           O          0.000000000000     0.000000000000     0.400000000000    15.994914619560

  Basis Set: 6-31G
    Blend: 6-31G
  Basis Set: (6-31G AUX)
    Blend: CC-PVDZ-JKFIT

  -Total Gradient:
     Atom            X                  Y                   Z
    ------   -----------------  -----------------  -----------------
       1        0.000000000000     0.000000000000     3.475153754693
       2        0.000000000000    -0.000000000000    -3.475153754693

*** Psi4 exiting successfully. Buy a developer a beer!
