                               Psi4 1.2a1.dev429

  ==> Input File <==

--------------------------------------------------------------------------
# density-fitted hartree fock energies and gradients with 6-31g
molecule o2 {
0 3
O 0.0000000000 0.0000000000 0.0000000000
O 0.0000000000 0.0000000000 1.3000000000
}

set basis 6-31g
set reference rohf

energy('scf')
--------------------------------------------------------------------------

    Molecular point group: d2h

    Geometry (in Angstrom), charge = 0, multiplicity = 3:

       Center              X                  Y                   Z               Mass
    ------------   -----------------  -----------------  -----------------  -----------------
           O          0.000000000000     0.000000000000    -0.650000000000    15.994914619560
           O          0.000000000000     0.000000000000     0.650000000000    15.994914619560

  Charge       = 0
  Multiplicity = 3
  Basis Set: 6-31G
    Blend: 6-31G
  Basis Set: (6-31G AUX)
    Blend: CC-PVDZ-JKFIT

    Orbital Energies (a.u.)
    -----------------------

    Doubly Occupied:

       1Ag   -20.764147     1B1u  -20.763546     2Ag    -1.608343
       2B1u   -1.133869     3Ag    -0.697052     1B2u   -0.681373
       1B3u   -0.681373

    Singly Occupied:

       1B3g   -0.262698     1B2g   -0.262698

  @DF-ROHF Final Energy:  -149.51174116024245

   => Energetics <=

    Nuclear Repulsion Energy =             26.0518010382769170
    One-Electron Energy =                -257.3046215094871627
    Two-Electron Energy =                  81.7410793109677911
    Total Energy =                       -149.5117411602424511
*** Psi4 exiting successfully. Buy a developer a beer!
