                               Psi4 1.2a1.dev429

  ==> Input File <==

--------------------------------------------------------------------------
# density-fitted hartree fock energies and gradients with 6-31g
molecule h20 {
0 1
O 0.0000000000 0.0000000000 0.0000000000
O 0.0000000000 0.0000000000 1.0474747475
}

set basis 6-31g

gradient('hf')
--------------------------------------------------------------------------

    Molecular point group: d2h
  Charge       = 0
  Multiplicity = 1
  Basis Set: 6-31G
    Blend: 6-31G
  Basis Set: (6-31G AUX)
    Blend: CC-PVDZ-JKFIT

    Orbital Energies (a.u.)
    -----------------------

    Doubly Occupied:

       1Ag   -20.730588     1B1u  -20.728690     2Ag    -1.878533
       2B1u   -1.042806     1B3u   -0.854849     3Ag    -0.774245
       1B2u   -0.745193     1B2g   -0.414196

  @DF-RHF Final Energy:  -149.40933453535365

   => Energetics <=

    Nuclear Repulsion Energy =             32.3323702366963275
    One-Electron Energy =                -269.1452063812507163
    Two-Electron Energy =                  87.4035016092007453
    Total Energy =                       -149.4093345353536506
    Molecular point group: d2h

    Geometry (in Angstrom), charge = 0, multiplicity = 1:

       Center              X                  Y                   Z               Mass
    ------------   -----------------  -----------------  -----------------  -----------------
           O          0.000000000000     0.000000000000    -0.523737373750    15.994914619560
           O          0.000000000000     0.000000000000     0.523737373750    15.994914619560

  Basis Set: 6-31G
    Blend: 6-31G
  Basis Set: (6-31G AUX)
    Blend: CC-PVDZ-JKFIT

  -Total Gradient:
     Atom            X                  Y                   Z
    ------   -----------------  -----------------  -----------------
       1       -0.000000000000     0.000000000000     0.455283901080
       2        0.000000000000     0.000000000000    -0.455283901080

*** Psi4 exiting successfully. Buy a developer a beer!
