                               Psi4 1.2a1.dev429

  ==> Input File <==

--------------------------------------------------------------------------
# density-fitted hartree fock energies and gradients with 6-31g
molecule h2o {
0 1
O 0.0000000000 0.0000000000 0.0000000000
H 0.0000000000 0.0000000000 1.2000000000
H 0.0000000000 0.7660444431 -0.6427876097
}

set basis 6-31g

gradient('mp2')
--------------------------------------------------------------------------

    Molecular point group: cs
  Charge       = 0
  Multiplicity = 1
  Basis Set: 6-31G
    Blend: 6-31G
  Basis Set: (6-31G AUX)
    Blend: CC-PVDZ-JKFIT

    Orbital Energies (a.u.)
    -----------------------

    Doubly Occupied:

       1Ap   -20.559112     2Ap    -1.275196     3Ap    -0.663398
       4Ap    -0.491897     1App   -0.478000

  @DF-RHF Final Energy:   -75.93080559730578

   => Energetics <=

    Nuclear Repulsion Energy =              8.0264286899934127
    One-Electron Energy =                -120.9792613192395692
    Two-Electron Energy =                  37.0220270319403895
    Total Energy =                        -75.9308055973057776
  Basis Set: (6-31G AUX)
    Blend: CC-PVDZ-RI
    Molecular point group: cs

    Geometry (in Angstrom), charge = 0, multiplicity = 1:

       Center              X                  Y                   Z               Mass
    ------------   -----------------  -----------------  -----------------  -----------------
           O          0.042865883385     0.031180177023     0.000000000000    15.994914619560
           H          0.042865883385    -1.168819822977     0.000000000000     1.007825032070
           H         -0.723178559715     0.673967786723     0.000000000000     1.007825032070

  Basis Set: 6-31G
    Blend: 6-31G
  Basis Set: (6-31G AUX)
    Blend: CC-PVDZ-JKFIT
  Basis Set: (6-31G AUX)
    Blend: CC-PVDZ-JKFIT
	 Reference Energy          =     -75.9308055973057776 [Eh]
	 Singles Energy            =      -0.0000000000000000 [Eh]
	 Same-Spin Energy          =      -0.0327257320300850 [Eh]
	 Opposite-Spin Energy      =      -0.1065583516192582 [Eh]
	 Correlation Energy        =      -0.1392840836493432 [Eh]
	 Total Energy              =     -76.0700896809551210 [Eh]

	 ================> DF-SCS-MP2 Energies <==================
	-----------------------------------------------------------
	 SCS Same-Spin Scale       =       0.3333333333333333 [-]
	 SCS Opposite-Spin Scale   =       1.2000000000000000 [-]
	 SCS Same-Spin Energy      =      -0.0109085773433617 [Eh]
	 SCS Opposite-Spin Energy  =      -0.1278700219431099 [Eh]
	 SCS Correlation Energy    =      -0.1387785992864715 [Eh]
	 SCS Total Energy          =     -76.0695841965922455 [Eh]
	-----------------------------------------------------------

  -Total Gradient:
     Atom            X                  Y                   Z
    ------   -----------------  -----------------  -----------------
       1       -0.030022133564     0.069690336785     0.000000000000
       2        0.028194514479    -0.112323171743    -0.000000000000
       3        0.001827619085     0.042632834958    -0.000000000000

*** Psi4 exiting successfully. Buy a developer a beer!
