                               Psi4 1.2a1.dev429

  ==> Input File <==

--------------------------------------------------------------------------
# density-fitted hartree fock energies and gradients with 6-31g
molecule h2o {
0 1
O 0.0000000000 0.0000000000 0.0000000000
H 0.0000000000 0.0000000000 1.3000000000
H 0.0000000000 0.4104241720 -1.1276311449
}

set basis 6-31g

gradient('mp2')
--------------------------------------------------------------------------

    Molecular point group: cs
  Charge       = 0
  Multiplicity = 1
  Basis Set: 6-31G
    Blend: 6-31G
  Basis Set: (6-31G AUX)
    Blend: CC-PVDZ-JKFIT

    Orbital Energies (a.u.)
    -----------------------

    Doubly Occupied:

       1Ap   -20.529798     2Ap    -1.189359     3Ap    -0.588260
       1App   -0.437081     4Ap    -0.431837

  @DF-RHF Final Energy:   -75.82889962257877

   => Energetics <=

    Nuclear Repulsion Energy =              6.9992540892649711
    One-Electron Energy =                -119.3036377780370003
    Two-Electron Energy =                  36.4754840661932604
    Total Energy =                        -75.8288996225787741
  Basis Set: (6-31G AUX)
    Blend: CC-PVDZ-RI
    Molecular point group: cs

    Geometry (in Angstrom), charge = 0, multiplicity = 1:

       Center              X                  Y                   Z               Mass
    ------------   -----------------  -----------------  -----------------  -----------------
           O          0.022966284599     0.009645319287     0.000000000000    15.994914619560
           H          0.022966284599    -1.290354680713     0.000000000000     1.007825032070
           H         -0.387457887401     1.137276464187     0.000000000000     1.007825032070

  Basis Set: 6-31G
    Blend: 6-31G
  Basis Set: (6-31G AUX)
    Blend: CC-PVDZ-JKFIT
  Basis Set: (6-31G AUX)
    Blend: CC-PVDZ-JKFIT
	 Reference Energy          =     -75.8288996225787741 [Eh]
	 Singles Energy            =      -0.0000000000000000 [Eh]
	 Same-Spin Energy          =      -0.0344696343628038 [Eh]
	 Opposite-Spin Energy      =      -0.1108024570246071 [Eh]
	 Correlation Energy        =      -0.1452720913874109 [Eh]
	 Total Energy              =     -75.9741717139661858 [Eh]

	 ================> DF-SCS-MP2 Energies <==================
	-----------------------------------------------------------
	 SCS Same-Spin Scale       =       0.3333333333333333 [-]
	 SCS Opposite-Spin Scale   =       1.2000000000000000 [-]
	 SCS Same-Spin Energy      =      -0.0114898781209346 [Eh]
	 SCS Opposite-Spin Energy  =      -0.1329629484295285 [Eh]
	 SCS Correlation Energy    =      -0.1444528265504631 [Eh]
	 SCS Total Energy          =     -75.9733524491292371 [Eh]
	-----------------------------------------------------------

  -Total Gradient:
     Atom            X                  Y                   Z
    ------   -----------------  -----------------  -----------------
       1       -0.034161441234     0.003358572853    -0.000000000000
       2        0.036100643480    -0.123033643322     0.000000000000
       3       -0.001939202245     0.119675070469     0.000000000000

*** Psi4 exiting successfully. Buy a developer a beer!
