                               Psi4 1.2a1.dev429

  ==> Input File <==

--------------------------------------------------------------------------
# density-fitted hartree fock energies and gradients with 6-31g
molecule h20 {
0 1
O 0.0000000000 0.0000000000 0.0000000000
O 0.0000000000 0.0000000000 1.0404040404
}

set basis 6-31g

gradient('hf')
--------------------------------------------------------------------------

    Molecular point group: d2h
  Charge       = 0
  Multiplicity = 1
  Basis Set: 6-31G
    Blend: 6-31G
  Basis Set: (6-31G AUX)
    Blend: CC-PVDZ-JKFIT

    Orbital Energies (a.u.)
    -----------------------

    Doubly Occupied:

       1Ag   -20.729543     1B1u  -20.727560     2Ag    -1.887847
       2B1u   -1.039974     1B2u   -0.858747     3Ag    -0.776267
       1B3u   -0.749878     1B3g   -0.410198

  @DF-RHF Final Energy:  -149.40301354379997

   => Energetics <=

    Nuclear Repulsion Energy =             32.5521047926141875
    One-Electron Energy =                -269.5502091506136821
    Two-Electron Energy =                  87.5950908141995228
    Total Energy =                       -149.4030135437999718
    Molecular point group: d2h

    Geometry (in Angstrom), charge = 0, multiplicity = 1:

       Center              X                  Y                   Z               Mass
    ------------   -----------------  -----------------  -----------------  -----------------
           O          0.000000000000     0.000000000000    -0.520202020200    15.994914619560
           O          0.000000000000     0.000000000000     0.520202020200    15.994914619560

  Basis Set: 6-31G
    Blend: 6-31G
  Basis Set: (6-31G AUX)
    Blend: CC-PVDZ-JKFIT

  -Total Gradient:
     Atom            X                  Y                   Z
    ------   -----------------  -----------------  -----------------
       1        0.000000000000     0.000000000000     0.491134636839
       2       -0.000000000000    -0.000000000000    -0.491134636839

*** Psi4 exiting successfully. Buy a developer a beer!
