                               Psi4 1.2a1.dev429

  ==> Input File <==

--------------------------------------------------------------------------
# density-fitted hartree fock energies and gradients with 6-31g
molecule o2 {
0 3
O 0.0000000000 0.0000000000 0.0000000000
O 0.0000000000 0.0000000000 1.0404040404
}

set basis 6-31g
set reference rohf

gradient('scf')
--------------------------------------------------------------------------

    Molecular point group: d2h
  Charge       = 0
  Multiplicity = 3
  Basis Set: 6-31G
    Blend: 6-31G
  Basis Set: (6-31G AUX)
    Blend: CC-PVDZ-JKFIT

    Orbital Energies (a.u.)
    -----------------------

    Doubly Occupied:

       1Ag   -20.718744     1B1u  -20.716777     2Ag    -1.881334
       2B1u   -1.035392     1B2u   -0.799203     1B3u   -0.799203
       3Ag    -0.771340

    Singly Occupied:

       1B3g   -0.147341     1B2g   -0.147341

  @DF-ROHF Final Energy:  -149.47183115891087

   => Energetics <=

    Nuclear Repulsion Energy =             32.5521047926141875
    One-Electron Energy =                -269.6495225367879129
    Two-Electron Energy =                  87.6255865852628517
    Total Energy =                       -149.4718311589108737
    Molecular point group: d2h

    Geometry (in Angstrom), charge = 0, multiplicity = 3:

       Center              X                  Y                   Z               Mass
    ------------   -----------------  -----------------  -----------------  -----------------
           O          0.000000000000     0.000000000000    -0.520202020200    15.994914619560
           O          0.000000000000     0.000000000000     0.520202020200    15.994914619560

  Basis Set: 6-31G
    Blend: 6-31G
  Basis Set: (6-31G AUX)
    Blend: CC-PVDZ-JKFIT

  -Total Gradient:
     Atom            X                  Y                   Z
    ------   -----------------  -----------------  -----------------
       1       -0.000000000000     0.000000000000     0.485289159977
       2        0.000000000000     0.000000000000    -0.485289159977

*** Psi4 exiting successfully. Buy a developer a beer!
