                               Psi4 1.2a1.dev429

  ==> Input File <==

--------------------------------------------------------------------------
# density-fitted hartree fock energies and gradients with 6-31g
molecule h2o {
0 1
O 0.0000000000 0.0000000000 0.0000000000
H 0.0000000000 0.0000000000 1.4000000000
H 0.0000000000 0.0000000000 -1.2000000000
}

set basis 6-31g

gradient('mp2')
--------------------------------------------------------------------------

    Molecular point group: c2v
  Charge       = 0
  Multiplicity = 1
  Basis Set: 6-31G
    Blend: 6-31G
  Basis Set: (6-31G AUX)
    Blend: CC-PVDZ-JKFIT

    Orbital Energies (a.u.)
    -----------------------

    Doubly Occupied:

       1A1   -20.504011     2A1    -1.160302     3A1    -0.557555
       1B2    -0.414409     1B1    -0.414409

  @DF-RHF Final Energy:   -75.78733091523507

   => Energetics <=

    Nuclear Repulsion Energy =              6.7552475162496330
    One-Electron Energy =                -118.9837852368522988
    Two-Electron Energy =                  36.4412068053675924
    Total Energy =                        -75.7873309152350600
  Basis Set: (6-31G AUX)
    Blend: CC-PVDZ-RI
    Molecular point group: c2v

    Geometry (in Angstrom), charge = 0, multiplicity = 1:

       Center              X                  Y                   Z               Mass
    ------------   -----------------  -----------------  -----------------  -----------------
           O          0.000000000000     0.000000000000    -0.011191487327    15.994914619560
           H          0.000000000000     0.000000000000     1.388808512673     1.007825032070
           H          0.000000000000     0.000000000000    -1.211191487327     1.007825032070

  Basis Set: 6-31G
    Blend: 6-31G
  Basis Set: (6-31G AUX)
    Blend: CC-PVDZ-JKFIT
  Basis Set: (6-31G AUX)
    Blend: CC-PVDZ-JKFIT
	 Reference Energy          =     -75.7873309152350743 [Eh]
	 Singles Energy            =      -0.0000000000000000 [Eh]
	 Same-Spin Energy          =      -0.0342394077226892 [Eh]
	 Opposite-Spin Energy      =      -0.1082687712984868 [Eh]
	 Correlation Energy        =      -0.1425081790211760 [Eh]
	 Total Energy              =     -75.9298390942562520 [Eh]

	 ================> DF-SCS-MP2 Energies <==================
	-----------------------------------------------------------
	 SCS Same-Spin Scale       =       0.3333333333333333 [-]
	 SCS Opposite-Spin Scale   =       1.2000000000000000 [-]
	 SCS Same-Spin Energy      =      -0.0114131359075631 [Eh]
	 SCS Opposite-Spin Energy  =      -0.1299225255581841 [Eh]
	 SCS Correlation Energy    =      -0.1413356614657472 [Eh]
	 SCS Total Energy          =     -75.9286665767008202 [Eh]
	-----------------------------------------------------------

  -Total Gradient:
     Atom            X                  Y                   Z
    ------   -----------------  -----------------  -----------------
       1       -0.000000000000    -0.000000000000    -0.015321914950
       2        0.000000000000    -0.000000000000     0.135500591550
       3        0.000000000000     0.000000000000    -0.120178676600

*** Psi4 exiting successfully. Buy a developer a beer!
