                               Psi4 1.2a1.dev429

  ==> Input File <==

--------------------------------------------------------------------------
# density-fitted hartree fock energies and gradients with 6-31g
molecule h2o {
0 1
O 0.0000000000 0.0000000000 0.0000000000
H 0.0000000000 0.0000000000 1.5000000000
H 0.0000000000 1.2216004070 -0.4446261863
}

set basis 6-31g

gradient('mp2')
--------------------------------------------------------------------------

    Molecular point group: cs
  Charge       = 0
  Multiplicity = 1
  Basis Set: 6-31G
    Blend: 6-31G
  Basis Set: (6-31G AUX)
    Blend: CC-PVDZ-JKFIT

    Orbital Energies (a.u.)
    -----------------------

    Doubly Occupied:

       1Ap   -20.628891     2Ap    -1.225546     3Ap    -0.543167
       1App   -0.494994     4Ap    -0.479509

  @DF-RHF Final Energy:   -75.81181519158523

   => Energetics <=

    Nuclear Repulsion Energy =              6.3091820097475857
    One-Electron Energy =                -117.4977814106306369
    Two-Electron Energy =                  35.3767842092978313
    Total Energy =                        -75.8118151915852252
  Basis Set: (6-31G AUX)
    Blend: CC-PVDZ-RI
    Molecular point group: cs

    Geometry (in Angstrom), charge = 0, multiplicity = 1:

       Center              X                  Y                   Z               Mass
    ------------   -----------------  -----------------  -----------------  -----------------
           O          0.068357627369     0.059056013308     0.000000000000    15.994914619560
           H          0.068357627369    -1.440943986692     0.000000000000     1.007825032070
           H         -1.153242779631     0.503682199608     0.000000000000     1.007825032070

  Basis Set: 6-31G
    Blend: 6-31G
  Basis Set: (6-31G AUX)
    Blend: CC-PVDZ-JKFIT
  Basis Set: (6-31G AUX)
    Blend: CC-PVDZ-JKFIT
	 Reference Energy          =     -75.8118151915852252 [Eh]
	 Singles Energy            =      -0.0000000000000000 [Eh]
	 Same-Spin Energy          =      -0.0382174583950677 [Eh]
	 Opposite-Spin Energy      =      -0.1338135542850507 [Eh]
	 Correlation Energy        =      -0.1720310126801184 [Eh]
	 Total Energy              =     -75.9838462042653475 [Eh]

	 ================> DF-SCS-MP2 Energies <==================
	-----------------------------------------------------------
	 SCS Same-Spin Scale       =       0.3333333333333333 [-]
	 SCS Opposite-Spin Scale   =       1.2000000000000000 [-]
	 SCS Same-Spin Energy      =      -0.0127391527983559 [Eh]
	 SCS Opposite-Spin Energy  =      -0.1605762651420608 [Eh]
	 SCS Correlation Energy    =      -0.1733154179404167 [Eh]
	 SCS Total Energy          =     -75.9851306095256405 [Eh]
	-----------------------------------------------------------

  -Total Gradient:
     Atom            X                  Y                   Z
    ------   -----------------  -----------------  -----------------
       1        0.071529321753     0.048003175528    -0.000000000000
       2        0.014433343871    -0.097013693816     0.000000000000
       3       -0.085962665624     0.049010518288     0.000000000000

*** Psi4 exiting successfully. Buy a developer a beer!
