                               Psi4 1.3.1 release

  ==> Input File <==

--------------------------------------------------------------------------
# density fitted hartree fock
molecule h2o {
0 1
H 0.0000000000 0.0000000000 1.1500000000
H 0.0000000000 0.9473436073 -0.0709935889
O 0.0000000000 0.0000000000 0.0000000000
}

set basis 6-31g
energy('hf')

--------------------------------------------------------------------------

    Molecular point group: cs

    Geometry (in Angstrom), charge = 0, multiplicity = 1:

       Center              X                  Y                   Z               Mass
    ------------   -----------------  -----------------  -----------------  -----------------
         H            0.053010919886    -1.089621567112     0.000000000000     1.007825032230
         H           -0.894332687414     0.131372021788     0.000000000000     1.007825032230
         O            0.053010919886     0.060378432888     0.000000000000    15.994914619570

  Charge       = 0
  Multiplicity = 1
  Basis Set: 6-31G
    Blend: 6-31G
  Basis Set: (6-31G AUX)
    Blend: CC-PVDZ-JKFIT

    Orbital Energies [Eh]
    ---------------------

    Doubly Occupied:

       1Ap   -20.585511     2Ap    -1.331238     3Ap    -0.652559
       4Ap    -0.560640     1App   -0.503924

  @DF-RHF Final Energy:   -75.95366031316264

   => Energetics <=

    Nuclear Repulsion Energy =              8.4798810540096010
    One-Electron Energy =                -121.5993342420895829
    Two-Electron Energy =                  37.1657928749173436
    Total Energy =                        -75.9536603131626435

  Dipole Moment: [D]
     X:    -2.0627      Y:    -1.8972      Z:     0.0000     Total:     2.8025

*** Psi4 exiting successfully. Buy a developer a beer!
