                               Psi4 1.3.1 release

  ==> Input File <==

--------------------------------------------------------------------------
# density fitted hartree fock
molecule h2o {
0 1
H 0.0000000000 0.0000000000 1.0500000000
H 0.0000000000 1.0382723675 -0.1564943795
O 0.0000000000 0.0000000000 0.0000000000
}

set basis 6-31g
energy('hf')

--------------------------------------------------------------------------

    Molecular point group: c2v

    Geometry (in Angstrom), charge = 0, multiplicity = 1:

       Center              X                  Y                   Z               Mass
    ------------   -----------------  -----------------  -----------------  -----------------
         H            0.000000000000    -0.795870309297     0.608251085696     1.007825032230
         H           -0.000000000000     0.795870309297     0.608251085696     1.007825032230
         O           -0.000000000000     0.000000000000    -0.076650696128    15.994914619570

  Charge       = 0
  Multiplicity = 1
  Basis Set: 6-31G
    Blend: 6-31G
  Basis Set: (6-31G AUX)
    Blend: CC-PVDZ-JKFIT

    Orbital Energies [Eh]
    ---------------------

    Doubly Occupied:

       1A1   -20.583440     2A1    -1.318389     1B2    -0.652852
       3A1    -0.558030     1B1    -0.500829

  @DF-RHF Final Energy:   -75.96701441333755

   => Energetics <=

    Nuclear Repulsion Energy =              8.3961046452757628
    One-Electron Energy =                -121.4991494796955038
    Two-Electron Energy =                  37.1360304210821894
    Total Energy =                        -75.9670144133375516

  Dipole Moment: [D]
     X:    -0.0000      Y:     0.0000      Z:     2.7497     Total:     2.7497

*** Psi4 exiting successfully. Buy a developer a beer!
