                               Psi4 1.2a1.dev429

  ==> Input File <==

--------------------------------------------------------------------------
# density-fitted hartree fock energies and gradients with 6-31g
molecule h2o {
0 1
O 0.0000000000 0.0000000000 0.0000000000
H 0.0000000000 0.0000000000 1.5000000000
H 0.0000000000 0.9396926208 -0.3420201433
}

set basis 6-31g

gradient('mp2')
--------------------------------------------------------------------------

    Molecular point group: cs
  Charge       = 0
  Multiplicity = 1
  Basis Set: 6-31G
    Blend: 6-31G
  Basis Set: (6-31G AUX)
    Blend: CC-PVDZ-JKFIT

    Orbital Energies (a.u.)
    -----------------------

    Doubly Occupied:

       1Ap   -20.599972     2Ap    -1.276522     3Ap    -0.615703
       1App   -0.494284     4Ap    -0.484592

  @DF-RHF Final Energy:   -75.86910605960151

   => Energetics <=

    Nuclear Repulsion Energy =              7.3116013753032085
    One-Electron Energy =                -119.4192701215744705
    Two-Electron Energy =                  36.2385626866697521
    Total Energy =                        -75.8691060596015063
  Basis Set: (6-31G AUX)
    Blend: CC-PVDZ-RI
    Molecular point group: cs

    Geometry (in Angstrom), charge = 0, multiplicity = 1:

       Center              X                  Y                   Z               Mass
    ------------   -----------------  -----------------  -----------------  -----------------
           O          0.052582790286     0.064797584457     0.000000000000    15.994914619560
           H          0.052582790286    -1.435202415543     0.000000000000     1.007825032070
           H         -0.887109830514     0.406817727757     0.000000000000     1.007825032070

  Basis Set: 6-31G
    Blend: 6-31G
  Basis Set: (6-31G AUX)
    Blend: CC-PVDZ-JKFIT
  Basis Set: (6-31G AUX)
    Blend: CC-PVDZ-JKFIT
	 Reference Energy          =     -75.8691060596015063 [Eh]
	 Singles Energy            =      -0.0000000000000000 [Eh]
	 Same-Spin Energy          =      -0.0346825759442592 [Eh]
	 Opposite-Spin Energy      =      -0.1202712357799190 [Eh]
	 Correlation Energy        =      -0.1549538117241783 [Eh]
	 Total Energy              =     -76.0240598713256901 [Eh]

	 ================> DF-SCS-MP2 Energies <==================
	-----------------------------------------------------------
	 SCS Same-Spin Scale       =       0.3333333333333333 [-]
	 SCS Opposite-Spin Scale   =       1.2000000000000000 [-]
	 SCS Same-Spin Energy      =      -0.0115608586480864 [Eh]
	 SCS Opposite-Spin Energy  =      -0.1443254829359028 [Eh]
	 SCS Correlation Energy    =      -0.1558863415839892 [Eh]
	 SCS Total Energy          =     -76.0249924011855001 [Eh]
	-----------------------------------------------------------

  -Total Gradient:
     Atom            X                  Y                   Z
    ------   -----------------  -----------------  -----------------
       1       -0.009632612861     0.084758091005     0.000000000000
       2        0.011628460848    -0.104046645627    -0.000000000000
       3       -0.001995847987     0.019288554622    -0.000000000000

*** Psi4 exiting successfully. Buy a developer a beer!
