                               Psi4 1.2a1.dev429

  ==> Input File <==

--------------------------------------------------------------------------
# density-fitted hartree fock energies and gradients with 6-31g
molecule h2o {
0 1
O 0.0000000000 0.0000000000 0.0000000000
H 0.0000000000 0.0000000000 1.3000000000
H 0.0000000000 0.7713451316 -0.9192533317
}

set basis 6-31g

gradient('mp2')
--------------------------------------------------------------------------

    Molecular point group: cs
  Charge       = 0
  Multiplicity = 1
  Basis Set: 6-31G
    Blend: 6-31G
  Basis Set: (6-31G AUX)
    Blend: CC-PVDZ-JKFIT

    Orbital Energies (a.u.)
    -----------------------

    Doubly Occupied:

       1Ap   -20.567831     2Ap    -1.217185     3Ap    -0.594162
       1App   -0.463906     4Ap    -0.458931

  @DF-RHF Final Energy:   -75.85585018744437

   => Energetics <=

    Nuclear Repulsion Energy =              7.0095547677725127
    One-Electron Energy =                -119.1267811314778555
    Two-Electron Energy =                  36.2613761762609741
    Total Energy =                        -75.8558501874443607
  Basis Set: (6-31G AUX)
    Blend: CC-PVDZ-RI
    Molecular point group: cs

    Geometry (in Angstrom), charge = 0, multiplicity = 1:

       Center              X                  Y                   Z               Mass
    ------------   -----------------  -----------------  -----------------  -----------------
           O          0.043162496326     0.021305607566     0.000000000000    15.994914619560
           H          0.043162496326    -1.278694392434     0.000000000000     1.007825032070
           H         -0.728182635274     0.940558939266     0.000000000000     1.007825032070

  Basis Set: 6-31G
    Blend: 6-31G
  Basis Set: (6-31G AUX)
    Blend: CC-PVDZ-JKFIT
  Basis Set: (6-31G AUX)
    Blend: CC-PVDZ-JKFIT
	 Reference Energy          =     -75.8558501874443749 [Eh]
	 Singles Energy            =      -0.0000000000000000 [Eh]
	 Same-Spin Energy          =      -0.0350152210209699 [Eh]
	 Opposite-Spin Energy      =      -0.1159764604719242 [Eh]
	 Correlation Energy        =      -0.1509916814928941 [Eh]
	 Total Energy              =     -76.0068418689372720 [Eh]

	 ================> DF-SCS-MP2 Energies <==================
	-----------------------------------------------------------
	 SCS Same-Spin Scale       =       0.3333333333333333 [-]
	 SCS Opposite-Spin Scale   =       1.2000000000000000 [-]
	 SCS Same-Spin Energy      =      -0.0116717403403233 [Eh]
	 SCS Opposite-Spin Energy  =      -0.1391717525663090 [Eh]
	 SCS Correlation Energy    =      -0.1508434929066323 [Eh]
	 SCS Total Energy          =     -76.0066936803510060 [Eh]
	-----------------------------------------------------------

  -Total Gradient:
     Atom            X                  Y                   Z
    ------   -----------------  -----------------  -----------------
       1       -0.000762375409     0.008092581316    -0.000000000000
       2        0.036329741071    -0.111709081342     0.000000000000
       3       -0.035567365662     0.103616500025     0.000000000000

*** Psi4 exiting successfully. Buy a developer a beer!
