                               Psi4 1.2a1.dev429

  ==> Input File <==

--------------------------------------------------------------------------
# density-fitted hartree fock energies and gradients with 6-31g
molecule h2o {
0 1
O 0.0000000000 0.0000000000 0.0000000000
H 0.0000000000 0.0000000000 1.0000000000
H 0.0000000000 0.2736161147 -0.7517540966
}

set basis 6-31g

gradient('mp2')
--------------------------------------------------------------------------

    Molecular point group: cs
  Charge       = 0
  Multiplicity = 1
  Basis Set: 6-31G
    Blend: 6-31G
  Basis Set: (6-31G AUX)
    Blend: CC-PVDZ-JKFIT

    Orbital Energies (a.u.)
    -----------------------

    Doubly Occupied:

       1Ap   -20.505923     2Ap    -1.343179     3Ap    -0.805159
       4Ap    -0.484010     1App   -0.479878

  @DF-RHF Final Energy:   -75.91808467766738

   => Energetics <=

    Nuclear Repulsion Energy =              9.8236550451176754
    One-Electron Energy =                -124.2471823544681939
    Two-Electron Energy =                  38.5054426316831240
    Total Energy =                        -75.9180846776673945
  Basis Set: (6-31G AUX)
    Blend: CC-PVDZ-RI
    Molecular point group: cs

    Geometry (in Angstrom), charge = 0, multiplicity = 1:

       Center              X                  Y                   Z               Mass
    ------------   -----------------  -----------------  -----------------  -----------------
           O          0.015310856401     0.013891204410     0.000000000000    15.994914619560
           H          0.015310856401    -0.986108795590     0.000000000000     1.007825032070
           H         -0.258305258299     0.765645301010     0.000000000000     1.007825032070

  Basis Set: 6-31G
    Blend: 6-31G
  Basis Set: (6-31G AUX)
    Blend: CC-PVDZ-JKFIT
  Basis Set: (6-31G AUX)
    Blend: CC-PVDZ-JKFIT
	 Reference Energy          =     -75.9180846776673803 [Eh]
	 Singles Energy            =      -0.0000000000000000 [Eh]
	 Same-Spin Energy          =      -0.0293481159971999 [Eh]
	 Opposite-Spin Energy      =      -0.0923762817392678 [Eh]
	 Correlation Energy        =      -0.1217243977364677 [Eh]
	 Total Energy              =     -76.0398090754038520 [Eh]

	 ================> DF-SCS-MP2 Energies <==================
	-----------------------------------------------------------
	 SCS Same-Spin Scale       =       0.3333333333333333 [-]
	 SCS Opposite-Spin Scale   =       1.2000000000000000 [-]
	 SCS Same-Spin Energy      =      -0.0097827053324000 [Eh]
	 SCS Opposite-Spin Energy  =      -0.1108515380871214 [Eh]
	 SCS Correlation Energy    =      -0.1206342434195213 [Eh]
	 SCS Total Energy          =     -76.0387189210868968 [Eh]
	-----------------------------------------------------------

  -Total Gradient:
     Atom            X                  Y                   Z
    ------   -----------------  -----------------  -----------------
       1       -0.147318198399     0.326440259760     0.000000000000
       2        0.021990487517    -0.062475059322     0.000000000000
       3        0.125327710882    -0.263965200438    -0.000000000000

*** Psi4 exiting successfully. Buy a developer a beer!
