                               Psi4 1.2a1.dev429

  ==> Input File <==

--------------------------------------------------------------------------
# density-fitted hartree fock energies and gradients with 6-31g
molecule h2o {
0 1
O 0.0000000000 0.0000000000 0.0000000000
H 0.0000000000 0.0000000000 1.2000000000
H 0.0000000000 0.6894399988 -0.5785088487
}

set basis 6-31g

gradient('mp2')
--------------------------------------------------------------------------

    Molecular point group: cs
  Charge       = 0
  Multiplicity = 1
  Basis Set: 6-31G
    Blend: 6-31G
  Basis Set: (6-31G AUX)
    Blend: CC-PVDZ-JKFIT

    Orbital Energies (a.u.)
    -----------------------

    Doubly Occupied:

       1Ap   -20.549502     2Ap    -1.305199     3Ap    -0.691637
       4Ap    -0.497139     1App   -0.481150

  @DF-RHF Final Energy:   -75.93062312105180

   => Energetics <=

    Nuclear Repulsion Energy =              8.5090698585261091
    One-Electron Energy =                -121.8301306361445455
    Two-Electron Energy =                  37.3904376565666396
    Total Energy =                        -75.9306231210518092
  Basis Set: (6-31G AUX)
    Blend: CC-PVDZ-RI
    Molecular point group: cs

    Geometry (in Angstrom), charge = 0, multiplicity = 1:

       Center              X                  Y                   Z               Mass
    ------------   -----------------  -----------------  -----------------  -----------------
           O          0.038579295047     0.034777051719     0.000000000000    15.994914619560
           H          0.038579295047    -1.165222948281     0.000000000000     1.007825032070
           H         -0.650860703753     0.613285900419     0.000000000000     1.007825032070

  Basis Set: 6-31G
    Blend: 6-31G
  Basis Set: (6-31G AUX)
    Blend: CC-PVDZ-JKFIT
  Basis Set: (6-31G AUX)
    Blend: CC-PVDZ-JKFIT
	 Reference Energy          =     -75.9306231210517950 [Eh]
	 Singles Energy            =      -0.0000000000000000 [Eh]
	 Same-Spin Energy          =      -0.0317367494319569 [Eh]
	 Opposite-Spin Energy      =      -0.1030913217758184 [Eh]
	 Correlation Energy        =      -0.1348280712077753 [Eh]
	 Total Energy              =     -76.0654511922595731 [Eh]

	 ================> DF-SCS-MP2 Energies <==================
	-----------------------------------------------------------
	 SCS Same-Spin Scale       =       0.3333333333333333 [-]
	 SCS Opposite-Spin Scale   =       1.2000000000000000 [-]
	 SCS Same-Spin Energy      =      -0.0105789164773190 [Eh]
	 SCS Opposite-Spin Energy  =      -0.1237095861309820 [Eh]
	 SCS Correlation Energy    =      -0.1342885026083010 [Eh]
	 SCS Total Energy          =     -76.0649116236600946 [Eh]
	-----------------------------------------------------------

  -Total Gradient:
     Atom            X                  Y                   Z
    ------   -----------------  -----------------  -----------------
       1       -0.115888752964     0.147172599646    -0.000000000000
       2        0.025912794667    -0.116776141044     0.000000000000
       3        0.089975958297    -0.030396458602     0.000000000000

*** Psi4 exiting successfully. Buy a developer a beer!
