                               Psi4 1.2a1.dev429

  ==> Input File <==

--------------------------------------------------------------------------
# density-fitted hartree fock energies and gradients with 6-31g
molecule h2o {
0 1
O 0.0000000000 0.0000000000 0.0000000000
H 0.0000000000 0.0000000000 1.4000000000
H 0.0000000000 0.8999026536 -1.0724622204
}

set basis 6-31g

gradient('mp2')
--------------------------------------------------------------------------

    Molecular point group: c2v
  Charge       = 0
  Multiplicity = 1
  Basis Set: 6-31G
    Blend: 6-31G
  Basis Set: (6-31G AUX)
    Blend: CC-PVDZ-JKFIT

    Orbital Energies (a.u.)
    -----------------------

    Doubly Occupied:

       1A1   -20.590089     2A1    -1.194186     1B2    -0.538303
       1B1    -0.466653     3A1    -0.445451

  @DF-RHF Final Energy:   -75.78164138352031

   => Energetics <=

    Nuclear Repulsion Energy =              6.2488604634453111
    One-Electron Energy =                -117.5916399119286666
    Two-Electron Energy =                  35.5611380649630462
    Total Energy =                        -75.7816413835203093
  Basis Set: (6-31G AUX)
    Blend: CC-PVDZ-RI
    Molecular point group: c2v

    Geometry (in Angstrom), charge = 0, multiplicity = 1:

       Center              X                  Y                   Z               Mass
    ------------   -----------------  -----------------  -----------------  -----------------
           O         -0.000000000000     0.000000000000    -0.053587997397    15.994914619560
           H          0.000000000000    -1.315569669123     0.425240203271     1.007825032070
           H         -0.000000000000     1.315569669123     0.425240203271     1.007825032070

  Basis Set: 6-31G
    Blend: 6-31G
  Basis Set: (6-31G AUX)
    Blend: CC-PVDZ-JKFIT
  Basis Set: (6-31G AUX)
    Blend: CC-PVDZ-JKFIT
	 Reference Energy          =     -75.7816413835203093 [Eh]
	 Singles Energy            =      -0.0000000000000000 [Eh]
	 Same-Spin Energy          =      -0.0372477340717535 [Eh]
	 Opposite-Spin Energy      =      -0.1285383134163045 [Eh]
	 Correlation Energy        =      -0.1657860474880580 [Eh]
	 Total Energy              =     -75.9474274310083644 [Eh]

	 ================> DF-SCS-MP2 Energies <==================
	-----------------------------------------------------------
	 SCS Same-Spin Scale       =       0.3333333333333333 [-]
	 SCS Opposite-Spin Scale   =       1.2000000000000000 [-]
	 SCS Same-Spin Energy      =      -0.0124159113572512 [Eh]
	 SCS Opposite-Spin Energy  =      -0.1542459760995654 [Eh]
	 SCS Correlation Energy    =      -0.1666618874568165 [Eh]
	 SCS Total Energy          =     -75.9483032709771209 [Eh]
	-----------------------------------------------------------

  -Total Gradient:
     Atom            X                  Y                   Z
    ------   -----------------  -----------------  -----------------
       1        0.000000000000     0.000000000012    -0.001010137189
       2       -0.000000000000    -0.106749193522     0.000505068595
       3        0.000000000000     0.106749193510     0.000505068594

*** Psi4 exiting successfully. Buy a developer a beer!
