                               Psi4 1.3.1 release

  ==> Input File <==

--------------------------------------------------------------------------
# density fitted hartree fock
molecule h2o {
0 1
H 0.0000000000 0.0000000000 1.1500000000
H 0.0000000000 0.7912426863 -0.3105398707
O 0.0000000000 0.0000000000 0.0000000000
}

set basis 6-31g
energy('hf')

--------------------------------------------------------------------------

    Molecular point group: cs

    Geometry (in Angstrom), charge = 0, multiplicity = 1:

       Center              X                  Y                   Z               Mass
    ------------   -----------------  -----------------  -----------------  -----------------
         H            0.044275912489    -1.103025962999     0.000000000000     1.007825032230
         H           -0.746966773811     0.357513907701     0.000000000000     1.007825032230
         O            0.044275912489     0.046974037001     0.000000000000    15.994914619570

  Charge       = 0
  Multiplicity = 1
  Basis Set: 6-31G
    Blend: 6-31G
  Basis Set: (6-31G AUX)
    Blend: CC-PVDZ-JKFIT

    Orbital Energies [Eh]
    ---------------------

    Doubly Occupied:

       1Ap   -20.560658     2Ap    -1.349286     3Ap    -0.701926
       4Ap    -0.536183     1App   -0.497046

  @DF-RHF Final Energy:   -75.94348019802628

   => Energetics <=

    Nuclear Repulsion Energy =              8.9802951803802955
    One-Electron Energy =                -122.5573414617521451
    Two-Electron Energy =                  37.6335660833455705
    Total Energy =                        -75.9434801980262790

  Dipole Moment: [D]
     X:    -1.9750      Y:    -1.5650      Z:     0.0000     Total:     2.5199

*** Psi4 exiting successfully. Buy a developer a beer!
