                               Psi4 1.2a1.dev429

  ==> Input File <==

--------------------------------------------------------------------------
# density-fitted hartree fock energies and gradients with 6-31g
molecule h2o {
0 1
O 0.0000000000 0.0000000000 0.0000000000
H 0.0000000000 0.0000000000 0.8000000000
H 0.0000000000 0.5500000000 -0.9526279442
}

set basis 6-31g

gradient('mp2')
--------------------------------------------------------------------------

    Molecular point group: cs
  Charge       = 0
  Multiplicity = 1
  Basis Set: 6-31G
    Blend: 6-31G
  Basis Set: (6-31G AUX)
    Blend: CC-PVDZ-JKFIT

    Orbital Energies (a.u.)
    -----------------------

    Doubly Occupied:

       1Ap   -20.514901     2Ap    -1.334960     3Ap    -0.761764
       4Ap    -0.484014     1App   -0.476442

  @DF-RHF Final Energy:   -75.90564911563884

   => Energetics <=

    Nuclear Repulsion Energy =              9.4284151344302636
    One-Electron Energy =                -123.5239672054562305
    Two-Electron Energy =                  38.1899029553871188
    Total Energy =                        -75.9056491156388518
  Basis Set: (6-31G AUX)
    Blend: CC-PVDZ-RI
    Molecular point group: cs

    Geometry (in Angstrom), charge = 0, multiplicity = 1:

       Center              X                  Y                   Z               Mass
    ------------   -----------------  -----------------  -----------------  -----------------
           O          0.030776590150    -0.008540668516     0.000000000000    15.994914619560
           H          0.030776590150    -0.808540668516     0.000000000000     1.007825032070
           H         -0.519223409850     0.944087275684     0.000000000000     1.007825032070

  Basis Set: 6-31G
    Blend: 6-31G
  Basis Set: (6-31G AUX)
    Blend: CC-PVDZ-JKFIT
  Basis Set: (6-31G AUX)
    Blend: CC-PVDZ-JKFIT
	 Reference Energy          =     -75.9056491156388375 [Eh]
	 Singles Energy            =      -0.0000000000000000 [Eh]
	 Same-Spin Energy          =      -0.0301970970884160 [Eh]
	 Opposite-Spin Energy      =      -0.0955386250867405 [Eh]
	 Correlation Energy        =      -0.1257357221751564 [Eh]
	 Total Energy              =     -76.0313848378139880 [Eh]

	 ================> DF-SCS-MP2 Energies <==================
	-----------------------------------------------------------
	 SCS Same-Spin Scale       =       0.3333333333333333 [-]
	 SCS Opposite-Spin Scale   =       1.2000000000000000 [-]
	 SCS Same-Spin Energy      =      -0.0100656990294720 [Eh]
	 SCS Opposite-Spin Energy  =      -0.1146463501040885 [Eh]
	 SCS Correlation Energy    =      -0.1247120491335605 [Eh]
	 SCS Total Energy          =     -76.0303611647724011 [Eh]
	-----------------------------------------------------------

  -Total Gradient:
     Atom            X                  Y                   Z
    ------   -----------------  -----------------  -----------------
       1       -0.006262163378    -0.411388574190     0.000000000000
       2        0.038146469526     0.300677561601    -0.000000000000
       3       -0.031884306148     0.110711012589    -0.000000000000

*** Psi4 exiting successfully. Buy a developer a beer!
