                               Psi4 1.2a1.dev429

  ==> Input File <==

--------------------------------------------------------------------------
# density-fitted hartree fock energies and gradients with 6-31g
molecule h20 {
0 1
O 0.0000000000 0.0000000000 0.0000000000
H 0.0000000000 0.0000000000 0.7000000000
H 0.0000000000 0.0000000000 -1.1000000000
}

set basis 6-31g

gradient('hf')
--------------------------------------------------------------------------

    Molecular point group: c2v
  Charge       = 0
  Multiplicity = 1
  Basis Set: 6-31G
    Blend: 6-31G
  Basis Set: (6-31G AUX)
    Blend: CC-PVDZ-JKFIT

    Orbital Energies (a.u.)
    -----------------------

    Doubly Occupied:

       1A1   -20.493737     2A1    -1.367577     3A1    -0.798630
       1B2    -0.474508     1B1    -0.474508

  @DF-RHF Final Energy:   -75.79983952520769

   => Energetics <=

    Nuclear Repulsion Energy =             10.1902883818665941
    One-Electron Energy =                -124.7623371978379794
    Two-Electron Energy =                  38.7722092907636906
    Total Energy =                        -75.7998395252076875
    Molecular point group: c2v

    Geometry (in Angstrom), charge = 0, multiplicity = 1:

       Center              X                  Y                   Z               Mass
    ------------   -----------------  -----------------  -----------------  -----------------
           O          0.000000000000     0.000000000000     0.022382974654    15.994914619560
           H          0.000000000000     0.000000000000     0.722382974654     1.007825032070
           H          0.000000000000     0.000000000000    -1.077617025346     1.007825032070

  Basis Set: 6-31G
    Blend: 6-31G
  Basis Set: (6-31G AUX)
    Blend: CC-PVDZ-JKFIT

  -Total Gradient:
     Atom            X                  Y                   Z
    ------   -----------------  -----------------  -----------------
       1        0.000000000000     0.000000000000     0.863043876903
       2       -0.000000000000     0.000000000000    -0.717056458339
       3       -0.000000000000    -0.000000000000    -0.145987418565

*** Psi4 exiting successfully. Buy a developer a beer!
