                               Psi4 1.2a1.dev429

  ==> Input File <==

--------------------------------------------------------------------------
# density-fitted hartree fock energies and gradients with 6-31g
molecule h2o {
0 1
O 0.0000000000 0.0000000000 0.0000000000
H 0.0000000000 0.0000000000 0.9000000000
H 0.0000000000 1.0392304845 -0.6000000000
}

set basis 6-31g

gradient('mp2')
--------------------------------------------------------------------------

    Molecular point group: cs
  Charge       = 0
  Multiplicity = 1
  Basis Set: 6-31G
    Blend: 6-31G
  Basis Set: (6-31G AUX)
    Blend: CC-PVDZ-JKFIT

    Orbital Energies (a.u.)
    -----------------------

    Doubly Occupied:

       1Ap   -20.560885     2Ap    -1.315949     3Ap    -0.684963
       4Ap    -0.513716     1App   -0.488818

  @DF-RHF Final Energy:   -75.93873677038057

   => Energetics <=

    Nuclear Repulsion Energy =              8.5216327910554188
    One-Electron Energy =                -121.7920778077861996
    Two-Electron Energy =                  37.3317082463502175
    Total Energy =                        -75.9387367703805580
  Basis Set: (6-31G AUX)
    Blend: CC-PVDZ-RI
    Molecular point group: cs

    Geometry (in Angstrom), charge = 0, multiplicity = 1:

       Center              X                  Y                   Z               Mass
    ------------   -----------------  -----------------  -----------------  -----------------
           O          0.058152673987     0.016787230991     0.000000000000    15.994914619560
           H          0.058152673987    -0.883212769009     0.000000000000     1.007825032070
           H         -0.981077810513     0.616787230991     0.000000000000     1.007825032070

  Basis Set: 6-31G
    Blend: 6-31G
  Basis Set: (6-31G AUX)
    Blend: CC-PVDZ-JKFIT
  Basis Set: (6-31G AUX)
    Blend: CC-PVDZ-JKFIT
	 Reference Energy          =     -75.9387367703805722 [Eh]
	 Singles Energy            =      -0.0000000000000000 [Eh]
	 Same-Spin Energy          =      -0.0316414586948390 [Eh]
	 Opposite-Spin Energy      =      -0.1037784927225803 [Eh]
	 Correlation Energy        =      -0.1354199514174193 [Eh]
	 Total Energy              =     -76.0741567217979906 [Eh]

	 ================> DF-SCS-MP2 Energies <==================
	-----------------------------------------------------------
	 SCS Same-Spin Scale       =       0.3333333333333333 [-]
	 SCS Opposite-Spin Scale   =       1.2000000000000000 [-]
	 SCS Same-Spin Energy      =      -0.0105471528982797 [Eh]
	 SCS Opposite-Spin Energy  =      -0.1245341912670963 [Eh]
	 SCS Correlation Energy    =      -0.1350813441653760 [Eh]
	 SCS Total Energy          =     -76.0738181145459436 [Eh]
	-----------------------------------------------------------

  -Total Gradient:
     Atom            X                  Y                   Z
    ------   -----------------  -----------------  -----------------
       1        0.064320851505    -0.164349451844    -0.000000000000
       2        0.023433184187     0.093390903268    -0.000000000000
       3       -0.087754035692     0.070958548576     0.000000000000

*** Psi4 exiting successfully. Buy a developer a beer!
