                               Psi4 1.2a1.dev429

  ==> Input File <==

--------------------------------------------------------------------------
# density-fitted hartree fock energies and gradients with 6-31g
molecule h20 {
0 1
O 0.0000000000 0.0000000000 0.0000000000
H 0.0000000000 0.0000000000 1.0000000000
H 0.0000000000 0.2394141003 -0.6577848346
}

set basis 6-31g

gradient('hf')
--------------------------------------------------------------------------

    Molecular point group: cs
  Charge       = 0
  Multiplicity = 1
  Basis Set: 6-31G
    Blend: 6-31G
  Basis Set: (6-31G AUX)
    Blend: CC-PVDZ-JKFIT

    Orbital Energies (a.u.)
    -----------------------

    Doubly Occupied:

       1Ap   -20.501221     2Ap    -1.390757     3Ap    -0.840005
       4Ap    -0.492985     1App   -0.488663

  @DF-RHF Final Energy:   -75.82956115212353

   => Energetics <=

    Nuclear Repulsion Energy =             10.5970870021346908
    One-Electron Energy =                -125.4260347046014346
    Two-Electron Energy =                  38.9993865503432176
    Total Energy =                        -75.8295611521235315
    Molecular point group: cs

    Geometry (in Angstrom), charge = 0, multiplicity = 1:

       Center              X                  Y                   Z               Mass
    ------------   -----------------  -----------------  -----------------  -----------------
           O          0.013396999347     0.019149483434     0.000000000000    15.994914619560
           H          0.013396999347    -0.980850516566     0.000000000000     1.007825032070
           H         -0.226017100953     0.676934318034     0.000000000000     1.007825032070

  Basis Set: 6-31G
    Blend: 6-31G
  Basis Set: (6-31G AUX)
    Blend: CC-PVDZ-JKFIT

  -Total Gradient:
     Atom            X                  Y                   Z
    ------   -----------------  -----------------  -----------------
       1       -0.288671876159     0.749128755620     0.000000000000
       2        0.018846916746    -0.086511769501     0.000000000000
       3        0.269824959413    -0.662616986119     0.000000000000

*** Psi4 exiting successfully. Buy a developer a beer!
