                               Psi4 1.2a1.dev429

  ==> Input File <==

--------------------------------------------------------------------------
# density-fitted hartree fock energies and gradients with 6-31g
molecule h2o {
0 1
O 0.0000000000 0.0000000000 0.0000000000
H 0.0000000000 0.0000000000 0.9000000000
H 0.0000000000 0.2431074487 -1.3787308542
}

set basis 6-31g

gradient('mp2')
--------------------------------------------------------------------------

    Molecular point group: cs
  Charge       = 0
  Multiplicity = 1
  Basis Set: 6-31G
    Blend: 6-31G
  Basis Set: (6-31G AUX)
    Blend: CC-PVDZ-JKFIT

    Orbital Energies (a.u.)
    -----------------------

    Doubly Occupied:

       1Ap   -20.495886     2Ap    -1.240090     3Ap    -0.638304
       1App   -0.433012     4Ap    -0.431227

  @DF-RHF Final Energy:   -75.82965178398207

   => Energetics <=

    Nuclear Repulsion Energy =              7.9585813164325705
    One-Electron Energy =                -121.0994291582587152
    Two-Electron Energy =                  37.3111960578440716
    Total Energy =                        -75.8296517839820723
  Basis Set: (6-31G AUX)
    Blend: CC-PVDZ-RI
    Molecular point group: cs

    Geometry (in Angstrom), charge = 0, multiplicity = 1:

       Center              X                  Y                   Z               Mass
    ------------   -----------------  -----------------  -----------------  -----------------
           O          0.013603669656    -0.026788551440     0.000000000000    15.994914619560
           H          0.013603669656    -0.926788551440     0.000000000000     1.007825032070
           H         -0.229503779044     1.351942302760     0.000000000000     1.007825032070

  Basis Set: 6-31G
    Blend: 6-31G
  Basis Set: (6-31G AUX)
    Blend: CC-PVDZ-JKFIT
  Basis Set: (6-31G AUX)
    Blend: CC-PVDZ-JKFIT
	 Reference Energy          =     -75.8296517839820723 [Eh]
	 Singles Energy            =      -0.0000000000000000 [Eh]
	 Same-Spin Energy          =      -0.0329216861785751 [Eh]
	 Opposite-Spin Energy      =      -0.1040612257322107 [Eh]
	 Correlation Energy        =      -0.1369829119107858 [Eh]
	 Total Energy              =     -75.9666346958928642 [Eh]

	 ================> DF-SCS-MP2 Energies <==================
	-----------------------------------------------------------
	 SCS Same-Spin Scale       =       0.3333333333333333 [-]
	 SCS Opposite-Spin Scale   =       1.2000000000000000 [-]
	 SCS Same-Spin Energy      =      -0.0109738953928584 [Eh]
	 SCS Opposite-Spin Energy  =      -0.1248734708786528 [Eh]
	 SCS Correlation Energy    =      -0.1358473662715112 [Eh]
	 SCS Total Energy          =     -75.9654991502535779 [Eh]
	-----------------------------------------------------------

  -Total Gradient:
     Atom            X                  Y                   Z
    ------   -----------------  -----------------  -----------------
       1       -0.021934011708    -0.222900502622     0.000000000000
       2        0.028748036913     0.077829095330    -0.000000000000
       3       -0.006814025205     0.145071407292    -0.000000000000

*** Psi4 exiting successfully. Buy a developer a beer!
