                               Psi4 1.2a1.dev429

  ==> Input File <==

--------------------------------------------------------------------------
# density-fitted hartree fock energies and gradients with 6-31g
molecule h2o {
0 1
O 0.0000000000 0.0000000000 0.0000000000
H 0.0000000000 0.0000000000 1.0000000000
H 0.0000000000 0.8863269777 -0.1562833599
}

set basis 6-31g

gradient('mp2')
--------------------------------------------------------------------------

    Molecular point group: cs
  Charge       = 0
  Multiplicity = 1
  Basis Set: 6-31G
    Blend: 6-31G
  Basis Set: (6-31G AUX)
    Blend: CC-PVDZ-JKFIT

    Orbital Energies (a.u.)
    -----------------------

    Doubly Occupied:

       1Ap   -20.561981     2Ap    -1.368359     3Ap    -0.706566
       4Ap    -0.569789     1App   -0.504172

  @DF-RHF Final Energy:   -75.97617008101386

   => Energetics <=

    Nuclear Repulsion Energy =              9.3004356653342715
    One-Electron Energy =                -123.1314767175784652
    Two-Electron Energy =                  37.8548709712303335
    Total Energy =                        -75.9761700810138620
  Basis Set: (6-31G AUX)
    Blend: CC-PVDZ-RI
    Molecular point group: cs

    Geometry (in Angstrom), charge = 0, multiplicity = 1:

       Center              X                  Y                   Z               Mass
    ------------   -----------------  -----------------  -----------------  -----------------
           O          0.049596585694     0.047212220427     0.000000000000    15.994914619560
           H          0.049596585694    -0.952787779573     0.000000000000     1.007825032070
           H         -0.836730392006     0.203495580327     0.000000000000     1.007825032070

  Basis Set: 6-31G
    Blend: 6-31G
  Basis Set: (6-31G AUX)
    Blend: CC-PVDZ-JKFIT
  Basis Set: (6-31G AUX)
    Blend: CC-PVDZ-JKFIT
	 Reference Energy          =     -75.9761700810138620 [Eh]
	 Singles Energy            =      -0.0000000000000000 [Eh]
	 Same-Spin Energy          =      -0.0299326372457150 [Eh]
	 Opposite-Spin Energy      =      -0.0983993344172516 [Eh]
	 Correlation Energy        =      -0.1283319716629667 [Eh]
	 Total Energy              =     -76.1045020526768354 [Eh]

	 ================> DF-SCS-MP2 Energies <==================
	-----------------------------------------------------------
	 SCS Same-Spin Scale       =       0.3333333333333333 [-]
	 SCS Opposite-Spin Scale   =       1.2000000000000000 [-]
	 SCS Same-Spin Energy      =      -0.0099775457485717 [Eh]
	 SCS Opposite-Spin Energy  =      -0.1180792013007019 [Eh]
	 SCS Correlation Energy    =      -0.1280567470492736 [Eh]
	 SCS Total Energy          =     -76.1042268280631333 [Eh]
	-----------------------------------------------------------

  -Total Gradient:
     Atom            X                  Y                   Z
    ------   -----------------  -----------------  -----------------
       1       -0.077521286680     0.053051021388     0.000000000000
       2       -0.018188529870    -0.015653557289     0.000000000000
       3        0.095709816551    -0.037397464098    -0.000000000000

*** Psi4 exiting successfully. Buy a developer a beer!
