                               Psi4 1.2a1.dev429

  ==> Input File <==

--------------------------------------------------------------------------
# density-fitted hartree fock energies and gradients with 6-31g
molecule h2o {
0 1
O 0.0000000000 0.0000000000 0.0000000000
H 0.0000000000 0.0000000000 0.8000000000
H 0.0000000000 0.2431074487 -1.3787308542
}

set basis 6-31g

gradient('mp2')
--------------------------------------------------------------------------

    Molecular point group: cs
  Charge       = 0
  Multiplicity = 1
  Basis Set: 6-31G
    Blend: 6-31G
  Basis Set: (6-31G AUX)
    Blend: CC-PVDZ-JKFIT

    Orbital Energies (a.u.)
    -----------------------

    Doubly Occupied:

       1Ap   -20.488018     2Ap    -1.282059     3Ap    -0.664835
       1App   -0.438634     4Ap    -0.437105

  @DF-RHF Final Energy:   -75.79890610305149

   => Energetics <=

    Nuclear Repulsion Energy =              8.5570270455148520
    One-Electron Energy =                -122.0905640075253160
    Two-Electron Energy =                  37.7346308589589725
    Total Energy =                        -75.7989061030514790
  Basis Set: (6-31G AUX)
    Blend: CC-PVDZ-RI
    Molecular point group: cs

    Geometry (in Angstrom), charge = 0, multiplicity = 1:

       Center              X                  Y                   Z               Mass
    ------------   -----------------  -----------------  -----------------  -----------------
           O          0.013603669656    -0.032384295103     0.000000000000    15.994914619560
           H          0.013603669656    -0.832384295103     0.000000000000     1.007825032070
           H         -0.229503779044     1.346346559097     0.000000000000     1.007825032070

  Basis Set: 6-31G
    Blend: 6-31G
  Basis Set: (6-31G AUX)
    Blend: CC-PVDZ-JKFIT
  Basis Set: (6-31G AUX)
    Blend: CC-PVDZ-JKFIT
	 Reference Energy          =     -75.7989061030514932 [Eh]
	 Singles Energy            =      -0.0000000000000000 [Eh]
	 Same-Spin Energy          =      -0.0321444857807103 [Eh]
	 Opposite-Spin Energy      =      -0.1017269970005753 [Eh]
	 Correlation Energy        =      -0.1338714827812856 [Eh]
	 Total Energy              =     -75.9327775858327811 [Eh]

	 ================> DF-SCS-MP2 Energies <==================
	-----------------------------------------------------------
	 SCS Same-Spin Scale       =       0.3333333333333333 [-]
	 SCS Opposite-Spin Scale   =       1.2000000000000000 [-]
	 SCS Same-Spin Energy      =      -0.0107148285935701 [Eh]
	 SCS Opposite-Spin Energy  =      -0.1220723964006904 [Eh]
	 SCS Correlation Energy    =      -0.1327872249942605 [Eh]
	 SCS Total Energy          =     -75.9316933280457533 [Eh]
	-----------------------------------------------------------

  -Total Gradient:
     Atom            X                  Y                   Z
    ------   -----------------  -----------------  -----------------
       1       -0.020030083076    -0.455159297323    -0.000000000000
       2        0.029336120269     0.305845003756     0.000000000000
       3       -0.009306037193     0.149314293568    -0.000000000000

*** Psi4 exiting successfully. Buy a developer a beer!
