                               Psi4 1.2a1.dev429

  ==> Input File <==

--------------------------------------------------------------------------
# density-fitted hartree fock energies and gradients with 6-31g
molecule h2o {
0 1
O 0.0000000000 0.0000000000 0.0000000000
H 0.0000000000 0.0000000000 0.8000000000
H 0.0000000000 0.6894399988 -0.5785088487
}

set basis 6-31g

gradient('mp2')
--------------------------------------------------------------------------

    Molecular point group: cs
  Charge       = 0
  Multiplicity = 1
  Basis Set: 6-31G
    Blend: 6-31G
  Basis Set: (6-31G AUX)
    Blend: CC-PVDZ-JKFIT

    Orbital Energies (a.u.)
    -----------------------

    Doubly Occupied:

       1Ap   -20.522329     2Ap    -1.393812     3Ap    -0.821393
       4Ap    -0.530388     1App   -0.499591

  @DF-RHF Final Energy:   -75.94488885413743

   => Energetics <=

    Nuclear Repulsion Energy =             10.3389006222987749
    One-Electron Energy =                -125.0325523379706851
    Two-Electron Energy =                  38.7487628615344875
    Total Energy =                        -75.9448888541374174
  Basis Set: (6-31G AUX)
    Blend: CC-PVDZ-RI
    Molecular point group: cs

    Geometry (in Angstrom), charge = 0, multiplicity = 1:

       Center              X                  Y                   Z               Mass
    ------------   -----------------  -----------------  -----------------  -----------------
           O          0.038579295047     0.012394077064     0.000000000000    15.994914619560
           H          0.038579295047    -0.787605922936     0.000000000000     1.007825032070
           H         -0.650860703753     0.590902925764     0.000000000000     1.007825032070

  Basis Set: 6-31G
    Blend: 6-31G
  Basis Set: (6-31G AUX)
    Blend: CC-PVDZ-JKFIT
  Basis Set: (6-31G AUX)
    Blend: CC-PVDZ-JKFIT
	 Reference Energy          =     -75.9448888541374316 [Eh]
	 Singles Energy            =      -0.0000000000000000 [Eh]
	 Same-Spin Energy          =      -0.0283785404914602 [Eh]
	 Opposite-Spin Energy      =      -0.0903852143296086 [Eh]
	 Correlation Energy        =      -0.1187637548210689 [Eh]
	 Total Energy              =     -76.0636526089585061 [Eh]

	 ================> DF-SCS-MP2 Energies <==================
	-----------------------------------------------------------
	 SCS Same-Spin Scale       =       0.3333333333333333 [-]
	 SCS Opposite-Spin Scale   =       1.2000000000000000 [-]
	 SCS Same-Spin Energy      =      -0.0094595134971534 [Eh]
	 SCS Opposite-Spin Energy  =      -0.1084622571955304 [Eh]
	 SCS Correlation Energy    =      -0.1179217706926838 [Eh]
	 SCS Total Energy          =     -76.0628106248301208 [Eh]
	-----------------------------------------------------------

  -Total Gradient:
     Atom            X                  Y                   Z
    ------   -----------------  -----------------  -----------------
       1       -0.086146234809    -0.271354179195    -0.000000000000
       2        0.020325106382     0.303000181991     0.000000000000
       3        0.065821128427    -0.031646002796     0.000000000000

*** Psi4 exiting successfully. Buy a developer a beer!
