                               Psi4 1.2a1.dev429

  ==> Input File <==

--------------------------------------------------------------------------
# density-fitted hartree fock energies and gradients with 6-31g
molecule h2o {
0 1
O 0.0000000000 0.0000000000 0.0000000000
H 0.0000000000 0.0000000000 1.0000000000
H 0.0000000000 0.4788282007 -1.3155696691
}

set basis 6-31g

gradient('mp2')
--------------------------------------------------------------------------

    Molecular point group: cs
  Charge       = 0
  Multiplicity = 1
  Basis Set: 6-31G
    Blend: 6-31G
  Basis Set: (6-31G AUX)
    Blend: CC-PVDZ-JKFIT

    Orbital Energies (a.u.)
    -----------------------

    Doubly Occupied:

       1Ap   -20.518856     2Ap    -1.220550     3Ap    -0.617107
       1App   -0.439710     4Ap    -0.433687

  @DF-RHF Final Energy:   -75.83909438240039

   => Energetics <=

    Nuclear Repulsion Energy =              7.4810827381183813
    One-Electron Energy =                -120.1805337128461986
    Two-Electron Energy =                  36.8603565923274417
    Total Energy =                        -75.8390943824003898
  Basis Set: (6-31G AUX)
    Blend: CC-PVDZ-RI
    Molecular point group: cs

    Geometry (in Angstrom), charge = 0, multiplicity = 1:

       Center              X                  Y                   Z               Mass
    ------------   -----------------  -----------------  -----------------  -----------------
           O          0.026793998700    -0.017658469763     0.000000000000    15.994914619560
           H          0.026793998700    -1.017658469763     0.000000000000     1.007825032070
           H         -0.452034202000     1.297911199337     0.000000000000     1.007825032070

  Basis Set: 6-31G
    Blend: 6-31G
  Basis Set: (6-31G AUX)
    Blend: CC-PVDZ-JKFIT
  Basis Set: (6-31G AUX)
    Blend: CC-PVDZ-JKFIT
	 Reference Energy          =     -75.8390943824003898 [Eh]
	 Singles Energy            =      -0.0000000000000000 [Eh]
	 Same-Spin Energy          =      -0.0338045443306445 [Eh]
	 Opposite-Spin Energy      =      -0.1087507833081590 [Eh]
	 Correlation Energy        =      -0.1425553276388035 [Eh]
	 Total Energy              =     -75.9816497100391928 [Eh]

	 ================> DF-SCS-MP2 Energies <==================
	-----------------------------------------------------------
	 SCS Same-Spin Scale       =       0.3333333333333333 [-]
	 SCS Opposite-Spin Scale   =       1.2000000000000000 [-]
	 SCS Same-Spin Energy      =      -0.0112681814435482 [Eh]
	 SCS Opposite-Spin Energy  =      -0.1305009399697908 [Eh]
	 SCS Correlation Energy    =      -0.1417691214133390 [Eh]
	 SCS Total Energy          =     -75.9808635038137226 [Eh]
	-----------------------------------------------------------

  -Total Gradient:
     Atom            X                  Y                   Z
    ------   -----------------  -----------------  -----------------
       1       -0.030284680388    -0.100084945240     0.000000000000
       2        0.044328315531    -0.031076282954    -0.000000000000
       3       -0.014043635143     0.131161228195    -0.000000000000

*** Psi4 exiting successfully. Buy a developer a beer!
