                               Psi4 1.2a1.dev429

  ==> Input File <==

--------------------------------------------------------------------------
# density-fitted hartree fock energies and gradients with 6-31g
molecule h20 {
0 1
O 0.0000000000 0.0000000000 0.0000000000
H 0.0000000000 0.0000000000 1.3000000000
H 0.0000000000 0.1389185421 -0.7878462024
}

set basis 6-31g

gradient('hf')
--------------------------------------------------------------------------

    Molecular point group: cs
  Charge       = 0
  Multiplicity = 1
  Basis Set: 6-31G
    Blend: 6-31G
  Basis Set: (6-31G AUX)
    Blend: CC-PVDZ-JKFIT

    Orbital Energies (a.u.)
    -----------------------

    Doubly Occupied:

       1Ap   -20.493215     2Ap    -1.292552     3Ap    -0.694697
       1App   -0.447608     4Ap    -0.447215

  @DF-RHF Final Energy:   -75.83053792112641

   => Energetics <=

    Nuclear Repulsion Energy =              8.8011440583833753
    One-Electron Energy =                -122.5127898762807774
    Two-Electron Energy =                  37.8811078967709989
    Total Energy =                        -75.8305379211264068
    Molecular point group: cs

    Geometry (in Angstrom), charge = 0, multiplicity = 1:

       Center              X                  Y                   Z               Mass
    ------------   -----------------  -----------------  -----------------  -----------------
           O          0.007773525517     0.028658813677     0.000000000000    15.994914619560
           H          0.007773525517    -1.271341186323     0.000000000000     1.007825032070
           H         -0.131145016583     0.816505016077     0.000000000000     1.007825032070

  Basis Set: 6-31G
    Blend: 6-31G
  Basis Set: (6-31G AUX)
    Blend: CC-PVDZ-JKFIT

  -Total Gradient:
     Atom            X                  Y                   Z
    ------   -----------------  -----------------  -----------------
       1       -0.082482919811     0.444676092858     0.000000000000
       2        0.012751726600    -0.168541528245     0.000000000000
       3        0.069731193211    -0.276134564613     0.000000000000

*** Psi4 exiting successfully. Buy a developer a beer!
