                               Psi4 1.2a1.dev429

  ==> Input File <==

--------------------------------------------------------------------------
# density-fitted hartree fock energies and gradients with 6-31g
molecule h2o {
0 1
O 0.0000000000 0.0000000000 0.0000000000
H 0.0000000000 0.0000000000 1.0000000000
H 0.0000000000 0.7517540966 -0.2736161147
}

set basis 6-31g

gradient('mp2')
--------------------------------------------------------------------------

    Molecular point group: cs
  Charge       = 0
  Multiplicity = 1
  Basis Set: 6-31G
    Blend: 6-31G
  Basis Set: (6-31G AUX)
    Blend: CC-PVDZ-JKFIT

    Orbital Energies (a.u.)
    -----------------------

    Doubly Occupied:

       1Ap   -20.544760     2Ap    -1.395145     3Ap    -0.754351
       4Ap    -0.556919     1App   -0.503566

  @DF-RHF Final Energy:   -75.94793161909377

   => Energetics <=

    Nuclear Repulsion Energy =              9.8830007505751496
    One-Electron Energy =                -124.1523811530581014
    Two-Electron Energy =                  38.3214487833891866
    Total Energy =                        -75.9479316190937652
  Basis Set: (6-31G AUX)
    Blend: CC-PVDZ-RI
    Molecular point group: cs

    Geometry (in Angstrom), charge = 0, multiplicity = 1:

       Center              X                  Y                   Z               Mass
    ------------   -----------------  -----------------  -----------------  -----------------
           O          0.042066232226     0.040646580235     0.000000000000    15.994914619560
           H          0.042066232226    -0.959353419765     0.000000000000     1.007825032070
           H         -0.709687864374     0.314262694935     0.000000000000     1.007825032070

  Basis Set: 6-31G
    Blend: 6-31G
  Basis Set: (6-31G AUX)
    Blend: CC-PVDZ-JKFIT
  Basis Set: (6-31G AUX)
    Blend: CC-PVDZ-JKFIT
	 Reference Energy          =     -75.9479316190937652 [Eh]
	 Singles Energy            =      -0.0000000000000000 [Eh]
	 Same-Spin Energy          =      -0.0288382424336887 [Eh]
	 Opposite-Spin Energy      =      -0.0941414350942163 [Eh]
	 Correlation Energy        =      -0.1229796775279050 [Eh]
	 Total Energy              =     -76.0709112966216736 [Eh]

	 ================> DF-SCS-MP2 Energies <==================
	-----------------------------------------------------------
	 SCS Same-Spin Scale       =       0.3333333333333333 [-]
	 SCS Opposite-Spin Scale   =       1.2000000000000000 [-]
	 SCS Same-Spin Energy      =      -0.0096127474778962 [Eh]
	 SCS Opposite-Spin Energy  =      -0.1129697221130596 [Eh]
	 SCS Correlation Energy    =      -0.1225824695909558 [Eh]
	 SCS Total Energy          =     -76.0705140886847175 [Eh]
	-----------------------------------------------------------

  -Total Gradient:
     Atom            X                  Y                   Z
    ------   -----------------  -----------------  -----------------
       1       -0.293947997555     0.142806947000    -0.000000000000
       2       -0.004961461327    -0.027412955598     0.000000000000
       3        0.298909458882    -0.115393991402     0.000000000000

*** Psi4 exiting successfully. Buy a developer a beer!
