                               Psi4 1.2a1.dev429

  ==> Input File <==

--------------------------------------------------------------------------
# density-fitted hartree fock energies and gradients with 6-31g
molecule h20 {
0 1
O 0.0000000000 0.0000000000 0.0000000000
H 0.0000000000 0.0000000000 1.2000000000
H 0.0000000000 1.0392304845 -0.6000000000
}

set basis 6-31g

gradient('hf')
--------------------------------------------------------------------------

    Molecular point group: c2v
  Charge       = 0
  Multiplicity = 1
  Basis Set: 6-31G
    Blend: 6-31G
  Basis Set: (6-31G AUX)
    Blend: CC-PVDZ-JKFIT

    Orbital Energies (a.u.)
    -----------------------

    Doubly Occupied:

       1A1   -20.589363     2A1    -1.249243     1B2    -0.608566
       3A1    -0.497923     1B1    -0.484129

  @DF-RHF Final Energy:   -75.90314647530981

   => Energetics <=

    Nuclear Repulsion Energy =              7.3102966178314572
    One-Electron Energy =                -119.5684375572066074
    Two-Electron Energy =                  36.3549944640653422
    Total Energy =                        -75.9031464753098106
    Molecular point group: c2v

    Geometry (in Angstrom), charge = 0, multiplicity = 1:

       Center              X                  Y                   Z               Mass
    ------------   -----------------  -----------------  -----------------  -----------------
           O          0.000000000000     0.000000000000    -0.067148923961    15.994914619560
           H          0.000000000000    -1.039230484531     0.532851076021     1.007825032070
           H         -0.000000000000     1.039230484531     0.532851076021     1.007825032070

  Basis Set: 6-31G
    Blend: 6-31G
  Basis Set: (6-31G AUX)
    Blend: CC-PVDZ-JKFIT

  -Total Gradient:
     Atom            X                  Y                   Z
    ------   -----------------  -----------------  -----------------
       1       -0.000000000000     0.000000000000    -0.090259319920
       2        0.000000000000    -0.118823999158     0.045129659960
       3       -0.000000000000     0.118823999158     0.045129659960

*** Psi4 exiting successfully. Buy a developer a beer!
