                               Psi4 1.3.1 release

  ==> Input File <==

--------------------------------------------------------------------------
# density fitted MP2
molecule h2o {
0 1
H 0.0000000000 0.0000000000 1.1125000000
H 0.0000000000 0.8210369523 -0.2199961883
O 0.0000000000 0.0000000000 0.0000000000
}

set basis 6-31g
energy('mp2')

--------------------------------------------------------------------------

    Molecular point group: cs

    Geometry (in Angstrom), charge = 0, multiplicity = 1:

       Center              X                  Y                   Z               Mass
    ------------   -----------------  -----------------  -----------------  -----------------
         H            0.045943123241    -1.062557774502     0.000000000000     1.007825032230
         H           -0.775093829059     0.269938413798     0.000000000000     1.007825032230
         O            0.045943123241     0.049942225498     0.000000000000    15.994914619570

  Charge       = 0
  Multiplicity = 1
  Basis Set: 6-31G
    Blend: 6-31G
  Basis Set: (6-31G AUX)
    Blend: CC-PVDZ-JKFIT

    Orbital Energies [Eh]
    ---------------------

    Doubly Occupied:

       1Ap   -20.563201     2Ap    -1.360988     3Ap    -0.702047
       4Ap    -0.551611     1App   -0.501315

  @DF-RHF Final Energy:   -75.95117922259979

   => Energetics <=

    Nuclear Repulsion Energy =              9.1239138862775064
    One-Electron Energy =                -122.7918626045274380
    Two-Electron Energy =                  37.7167694956501407
    Total Energy =                        -75.9511792225997908

  Dipole Moment: [D]
     X:    -2.0116      Y:    -1.6843      Z:     0.0000     Total:     2.6237

  Basis Set: (6-31G AUX)
    Blend: CC-PVDZ-RI
	 Reference Energy          =     -75.9511792225997908 [Eh]
	 Singles Energy            =      -0.0000000000000000 [Eh]
	 Same-Spin Energy          =      -0.0303120240135171 [Eh]
	 Opposite-Spin Energy      =      -0.0999752749342555 [Eh]
	 Correlation Energy        =      -0.1302872989477726 [Eh]
	 Total Energy              =     -76.0814665215475685 [Eh]

	 ================> DF-SCS-MP2 Energies <==================
	-----------------------------------------------------------
	 SCS Same-Spin Scale       =       0.3333333333333333 [-]
	 SCS Opposite-Spin Scale   =       1.2000000000000000 [-]
	 SCS Same-Spin Energy      =      -0.0101040080045057 [Eh]
	 SCS Opposite-Spin Energy  =      -0.1199703299211066 [Eh]
	 SCS Correlation Energy    =      -0.1300743379256123 [Eh]
	 SCS Total Energy          =     -76.0812535605253970 [Eh]
	-----------------------------------------------------------

*** Psi4 exiting successfully. Buy a developer a beer!
