                               Psi4 1.2a1.dev429

  ==> Input File <==

--------------------------------------------------------------------------
# density-fitted hartree fock energies and gradients with 6-31g
molecule h2o {
0 1
O 0.0000000000 0.0000000000 0.0000000000
H 0.0000000000 0.0000000000 0.8000000000
H 0.0000000000 0.5130302150 -1.4095389312
}

set basis 6-31g

gradient('mp2')
--------------------------------------------------------------------------

    Molecular point group: cs
  Charge       = 0
  Multiplicity = 1
  Basis Set: 6-31G
    Blend: 6-31G
  Basis Set: (6-31G AUX)
    Blend: CC-PVDZ-JKFIT

    Orbital Energies (a.u.)
    -----------------------

    Doubly Occupied:

       1Ap   -20.500086     2Ap    -1.288316     3Ap    -0.647497
       1App   -0.443410     4Ap    -0.433668

  @DF-RHF Final Energy:   -75.77856146591739

   => Energetics <=

    Nuclear Repulsion Energy =              8.3473412023816014
    One-Electron Energy =                -121.6258518904739248
    Two-Electron Energy =                  37.4999492221749335
    Total Energy =                        -75.7785614659173916
  Basis Set: (6-31G AUX)
    Blend: CC-PVDZ-RI
    Molecular point group: cs

    Geometry (in Angstrom), charge = 0, multiplicity = 1:

       Center              X                  Y                   Z               Mass
    ------------   -----------------  -----------------  -----------------  -----------------
           O          0.028707855748    -0.034108236120     0.000000000000    15.994914619560
           H          0.028707855748    -0.834108236120     0.000000000000     1.007825032070
           H         -0.484322359252     1.375430695080     0.000000000000     1.007825032070

  Basis Set: 6-31G
    Blend: 6-31G
  Basis Set: (6-31G AUX)
    Blend: CC-PVDZ-JKFIT
  Basis Set: (6-31G AUX)
    Blend: CC-PVDZ-JKFIT
	 Reference Energy          =     -75.7785614659173916 [Eh]
	 Singles Energy            =      -0.0000000000000000 [Eh]
	 Same-Spin Energy          =      -0.0327488919160168 [Eh]
	 Opposite-Spin Energy      =      -0.1068263071798808 [Eh]
	 Correlation Energy        =      -0.1395751990958976 [Eh]
	 Total Energy              =     -75.9181366650132929 [Eh]

	 ================> DF-SCS-MP2 Energies <==================
	-----------------------------------------------------------
	 SCS Same-Spin Scale       =       0.3333333333333333 [-]
	 SCS Opposite-Spin Scale   =       1.2000000000000000 [-]
	 SCS Same-Spin Energy      =      -0.0109162973053389 [Eh]
	 SCS Opposite-Spin Energy  =      -0.1281915686158570 [Eh]
	 SCS Correlation Energy    =      -0.1391078659211959 [Eh]
	 SCS Total Energy          =     -75.9176693318385816 [Eh]
	-----------------------------------------------------------

  -Total Gradient:
     Atom            X                  Y                   Z
    ------   -----------------  -----------------  -----------------
       1       -0.039150429167    -0.443444967424    -0.000000000000
       2        0.054651653244     0.315633973533     0.000000000000
       3       -0.015501224077     0.127810993892     0.000000000000

*** Psi4 exiting successfully. Buy a developer a beer!
