                               Psi4 1.2a1.dev429

  ==> Input File <==

--------------------------------------------------------------------------
# density-fitted hartree fock energies and gradients with 6-31g
molecule o2 {
0 3
O 0.0000000000 0.0000000000 0.0000000000
O 0.0000000000 0.0000000000 1.1857142857
}

set basis 6-31g
set reference rohf

energy('scf')
--------------------------------------------------------------------------

    Molecular point group: d2h

    Geometry (in Angstrom), charge = 0, multiplicity = 3:

       Center              X                  Y                   Z               Mass
    ------------   -----------------  -----------------  -----------------  -----------------
           O          0.000000000000     0.000000000000    -0.592857142850    15.994914619560
           O          0.000000000000     0.000000000000     0.592857142850    15.994914619560

  Charge       = 0
  Multiplicity = 3
  Basis Set: 6-31G
    Blend: 6-31G
  Basis Set: (6-31G AUX)
    Blend: CC-PVDZ-JKFIT

    Orbital Energies (a.u.)
    -----------------------

    Doubly Occupied:

       1Ag   -20.744568     1B1u  -20.743655     2Ag    -1.711824
       2B1u   -1.092900     3Ag    -0.729988     1B2u   -0.724988
       1B3u   -0.724988

    Singly Occupied:

       1B3g   -0.220230     1B2g   -0.220230

  @DF-ROHF Final Energy:  -149.52830962214384

   => Energetics <=

    Nuclear Repulsion Energy =             28.5628180061658163
    One-Electron Energy =                -262.1470402625594147
    Two-Electron Energy =                  84.0559126342497223
    Total Energy =                       -149.5283096221438655
*** Psi4 exiting successfully. Buy a developer a beer!
