                               Psi4 1.2a1.dev429

  ==> Input File <==

--------------------------------------------------------------------------
# density-fitted hartree fock energies and gradients with 6-31g
molecule h20 {
0 1
O 0.0000000000 0.0000000000 0.0000000000
O 0.0000000000 0.0000000000 0.9909090909
}

set basis 6-31g

gradient('hf')
--------------------------------------------------------------------------

    Molecular point group: d2h
  Charge       = 0
  Multiplicity = 1
  Basis Set: 6-31G
    Blend: 6-31G
  Basis Set: (6-31G AUX)
    Blend: CC-PVDZ-JKFIT

    Orbital Energies (a.u.)
    -----------------------

    Doubly Occupied:

       1Ag   -20.723220     1B1u  -20.720456     2Ag    -1.955699
       2B1u   -1.020139     1B3u   -0.888332     3Ag    -0.790399
       1B2u   -0.785169     1B2g   -0.380206

  @DF-RHF Final Energy:  -149.34363179396948

   => Energetics <=

    Nuclear Repulsion Energy =             34.1780509037410880
    One-Electron Energy =                -272.5161256839552379
    Two-Electron Energy =                  88.9944429862446782
    Total Energy =                       -149.3436317939694788
    Molecular point group: d2h

    Geometry (in Angstrom), charge = 0, multiplicity = 1:

       Center              X                  Y                   Z               Mass
    ------------   -----------------  -----------------  -----------------  -----------------
           O          0.000000000000     0.000000000000    -0.495454545450    15.994914619560
           O          0.000000000000     0.000000000000     0.495454545450    15.994914619560

  Basis Set: 6-31G
    Blend: 6-31G
  Basis Set: (6-31G AUX)
    Blend: CC-PVDZ-JKFIT

  -Total Gradient:
     Atom            X                  Y                   Z
    ------   -----------------  -----------------  -----------------
       1        0.000000000000    -0.000000000000     0.795104406589
       2       -0.000000000000     0.000000000000    -0.795104406589

*** Psi4 exiting successfully. Buy a developer a beer!
