                               Psi4 1.2a1.dev429

  ==> Input File <==

--------------------------------------------------------------------------
# density-fitted hartree fock energies and gradients with 6-31g
molecule h2o {
0 1
O 0.0000000000 0.0000000000 0.0000000000
H 0.0000000000 0.0000000000 1.2000000000
H 0.0000000000 0.3762221577 -1.0336618829
}

set basis 6-31g

gradient('mp2')
--------------------------------------------------------------------------

    Molecular point group: cs
  Charge       = 0
  Multiplicity = 1
  Basis Set: 6-31G
    Blend: 6-31G
  Basis Set: (6-31G AUX)
    Blend: CC-PVDZ-JKFIT

    Orbital Energies (a.u.)
    -----------------------

    Doubly Occupied:

       1Ap   -20.522616     2Ap    -1.217983     3Ap    -0.639013
       1App   -0.444394     4Ap    -0.443528

  @DF-RHF Final Energy:   -75.87950227662196

   => Energetics <=

    Nuclear Repulsion Energy =              7.6100290654163372
    One-Electron Energy =                -120.4439960999922903
    Two-Electron Energy =                  36.9544647579539784
    Total Energy =                        -75.8795022766219631
  Basis Set: (6-31G AUX)
    Blend: CC-PVDZ-RI
    Molecular point group: cs

    Geometry (in Angstrom), charge = 0, multiplicity = 1:

       Center              X                  Y                   Z               Mass
    ------------   -----------------  -----------------  -----------------  -----------------
           O          0.021052427551     0.009307854648     0.000000000000    15.994914619560
           H          0.021052427551    -1.190692145352     0.000000000000     1.007825032070
           H         -0.355169730149     1.042969737548     0.000000000000     1.007825032070

  Basis Set: 6-31G
    Blend: 6-31G
  Basis Set: (6-31G AUX)
    Blend: CC-PVDZ-JKFIT
  Basis Set: (6-31G AUX)
    Blend: CC-PVDZ-JKFIT
	 Reference Energy          =     -75.8795022766219631 [Eh]
	 Singles Energy            =      -0.0000000000000000 [Eh]
	 Same-Spin Energy          =      -0.0332540441185477 [Eh]
	 Opposite-Spin Energy      =      -0.1052603180282672 [Eh]
	 Correlation Energy        =      -0.1385143621468149 [Eh]
	 Total Energy              =     -76.0180166387687848 [Eh]

	 ================> DF-SCS-MP2 Energies <==================
	-----------------------------------------------------------
	 SCS Same-Spin Scale       =       0.3333333333333333 [-]
	 SCS Opposite-Spin Scale   =       1.2000000000000000 [-]
	 SCS Same-Spin Energy      =      -0.0110846813728492 [Eh]
	 SCS Opposite-Spin Energy  =      -0.1263123816339206 [Eh]
	 SCS Correlation Energy    =      -0.1373970630067698 [Eh]
	 SCS Total Energy          =     -76.0168993396287362 [Eh]
	-----------------------------------------------------------

  -Total Gradient:
     Atom            X                  Y                   Z
    ------   -----------------  -----------------  -----------------
       1       -0.030799794637     0.021973069165    -0.000000000000
       2        0.031564806912    -0.124754183100    -0.000000000000
       3       -0.000765012276     0.102781113935     0.000000000000

*** Psi4 exiting successfully. Buy a developer a beer!
