                               Psi4 1.2a1.dev429

  ==> Input File <==

--------------------------------------------------------------------------
# density-fitted hartree fock energies and gradients with 6-31g
molecule h20 {
0 1
O 0.0000000000 0.0000000000 0.0000000000
H 0.0000000000 0.0000000000 1.3000000000
H 0.0000000000 0.8863269777 -0.1562833599
}

set basis 6-31g

gradient('hf')
--------------------------------------------------------------------------

    Molecular point group: cs
  Charge       = 0
  Multiplicity = 1
  Basis Set: 6-31G
    Blend: 6-31G
  Basis Set: (6-31G AUX)
    Blend: CC-PVDZ-JKFIT

    Orbital Energies (a.u.)
    -----------------------

    Doubly Occupied:

       1Ap   -20.586920     2Ap    -1.327378     3Ap    -0.653621
       4Ap    -0.530802     1App   -0.501662

  @DF-RHF Final Energy:   -75.91824956327642

   => Energetics <=

    Nuclear Repulsion Energy =              8.2706771515211148
    One-Electron Energy =                -121.1770875822693370
    Two-Electron Energy =                  36.9881608674718123
    Total Energy =                        -75.9182495632764187
    Molecular point group: cs

    Geometry (in Angstrom), charge = 0, multiplicity = 1:

       Center              X                  Y                   Z               Mass
    ------------   -----------------  -----------------  -----------------  -----------------
           O          0.049596585694     0.063999451418     0.000000000000    15.994914619560
           H          0.049596585694    -1.236000548582     0.000000000000     1.007825032070
           H         -0.836730392006     0.220282811318     0.000000000000     1.007825032070

  Basis Set: 6-31G
    Blend: 6-31G
  Basis Set: (6-31G AUX)
    Blend: CC-PVDZ-JKFIT

  -Total Gradient:
     Atom            X                  Y                   Z
    ------   -----------------  -----------------  -----------------
       1       -0.068789371047     0.150875325596     0.000000000000
       2       -0.005281879110    -0.130067485556     0.000000000000
       3        0.074071250157    -0.020807840040     0.000000000000

*** Psi4 exiting successfully. Buy a developer a beer!
