                               Psi4 1.2a1.dev429

  ==> Input File <==

--------------------------------------------------------------------------
# density-fitted hartree fock energies and gradients with 6-31g
molecule h20 {
0 1
O 0.0000000000 0.0000000000 0.0000000000
H 0.0000000000 0.0000000000 0.9000000000
H 0.0000000000 0.5785088487 -0.6894399988
}

set basis 6-31g

gradient('hf')
--------------------------------------------------------------------------

    Molecular point group: c2v
  Charge       = 0
  Multiplicity = 1
  Basis Set: 6-31G
    Blend: 6-31G
  Basis Set: (6-31G AUX)
    Blend: CC-PVDZ-JKFIT

    Orbital Energies (a.u.)
    -----------------------

    Doubly Occupied:

       1A1   -20.521904     2A1    -1.349170     1B2    -0.795525
       3A1    -0.507074     1B1    -0.488582

  @DF-RHF Final Energy:   -75.96644545456545

   => Energetics <=

    Nuclear Repulsion Energy =              9.7204496100698670
    One-Electron Energy =                -124.0492795404929751
    Two-Electron Energy =                  38.3623844758576666
    Total Energy =                        -75.9664454545654451
    Molecular point group: c2v

    Geometry (in Angstrom), charge = 0, multiplicity = 1:

       Center              X                  Y                   Z               Mass
    ------------   -----------------  -----------------  -----------------  -----------------
           O         -0.000000000000     0.000000000000    -0.034449426896    15.994914619560
           H          0.000000000000    -0.845723358701     0.273368702090     1.007825032070
           H         -0.000000000000     0.845723358701     0.273368702090     1.007825032070

  Basis Set: 6-31G
    Blend: 6-31G
  Basis Set: (6-31G AUX)
    Blend: CC-PVDZ-JKFIT

  -Total Gradient:
     Atom            X                  Y                   Z
    ------   -----------------  -----------------  -----------------
       1       -0.000000000000     0.000000000000     0.085478538039
       2       -0.000000000000     0.035165598907    -0.042739269020
       3        0.000000000000    -0.035165598907    -0.042739269020

*** Psi4 exiting successfully. Buy a developer a beer!
