                               Psi4 1.2a1.dev429

  ==> Input File <==

--------------------------------------------------------------------------
# density-fitted hartree fock energies and gradients with 6-31g
molecule h20 {
0 1
O 0.0000000000 0.0000000000 0.0000000000
H 0.0000000000 0.0000000000 1.4000000000
H 0.0000000000 0.2431074487 -1.3787308542
}

set basis 6-31g

gradient('hf')
--------------------------------------------------------------------------

    Molecular point group: c2v
  Charge       = 0
  Multiplicity = 1
  Basis Set: 6-31G
    Blend: 6-31G
  Basis Set: (6-31G AUX)
    Blend: CC-PVDZ-JKFIT

    Orbital Energies (a.u.)
    -----------------------

    Doubly Occupied:

       1A1   -20.520343     2A1    -1.145901     1B2    -0.518130
       1B1    -0.417338     3A1    -0.411611

  @DF-RHF Final Energy:   -75.74094407726130

   => Energetics <=

    Nuclear Repulsion Energy =              6.2374533052069463
    One-Electron Energy =                -117.9301507848016541
    Two-Electron Energy =                  35.9517534023334022
    Total Energy =                        -75.7409440772613038
    Molecular point group: c2v

    Geometry (in Angstrom), charge = 0, multiplicity = 1:

       Center              X                  Y                   Z               Mass
    ------------   -----------------  -----------------  -----------------  -----------------
           O          0.000000000000     0.000000000000    -0.013655633465    15.994914619560
           H          0.000000000000    -1.394672577318     0.108362406366     1.007825032070
           H         -0.000000000000     1.394672577318     0.108362406366     1.007825032070

  Basis Set: 6-31G
    Blend: 6-31G
  Basis Set: (6-31G AUX)
    Blend: CC-PVDZ-JKFIT

  -Total Gradient:
     Atom            X                  Y                   Z
    ------   -----------------  -----------------  -----------------
       1       -0.000000000000     0.000000000000     0.015753231908
       2        0.000000000000    -0.134092986551    -0.007876615954
       3       -0.000000000000     0.134092986551    -0.007876615954

*** Psi4 exiting successfully. Buy a developer a beer!
