                               Psi4 1.2a1.dev429

  ==> Input File <==

--------------------------------------------------------------------------
# density-fitted hartree fock energies and gradients with 6-31g
molecule h2o {
0 1
O 0.0000000000 0.0000000000 0.0000000000
H 0.0000000000 0.0000000000 1.5000000000
H 0.0000000000 0.2083778132 -1.1817693036
}

set basis 6-31g

gradient('mp2')
--------------------------------------------------------------------------

    Molecular point group: cs
  Charge       = 0
  Multiplicity = 1
  Basis Set: 6-31G
    Blend: 6-31G
  Basis Set: (6-31G AUX)
    Blend: CC-PVDZ-JKFIT

    Orbital Energies (a.u.)
    -----------------------

    Doubly Occupied:

       1Ap   -20.513662     2Ap    -1.159749     3Ap    -0.541182
       1App   -0.418004     4Ap    -0.412273

  @DF-RHF Final Energy:   -75.76477019590698

   => Energetics <=

    Nuclear Repulsion Energy =              6.5468574227424243
    One-Electron Energy =                -118.5335155888966625
    Two-Electron Energy =                  36.2218879702472734
    Total Energy =                        -75.7647701959069764
  Basis Set: (6-31G AUX)
    Blend: CC-PVDZ-RI
    Molecular point group: cs

    Geometry (in Angstrom), charge = 0, multiplicity = 1:

       Center              X                  Y                   Z               Mass
    ------------   -----------------  -----------------  -----------------  -----------------
           O          0.011660288279     0.017807374029     0.000000000000    15.994914619560
           H          0.011660288279    -1.482192625971     0.000000000000     1.007825032070
           H         -0.196717524921     1.199576677629     0.000000000000     1.007825032070

  Basis Set: 6-31G
    Blend: 6-31G
  Basis Set: (6-31G AUX)
    Blend: CC-PVDZ-JKFIT
  Basis Set: (6-31G AUX)
    Blend: CC-PVDZ-JKFIT
	 Reference Energy          =     -75.7647701959069764 [Eh]
	 Singles Energy            =      -0.0000000000000000 [Eh]
	 Same-Spin Energy          =      -0.0349670877127893 [Eh]
	 Opposite-Spin Energy      =      -0.1132384952084935 [Eh]
	 Correlation Energy        =      -0.1482055829212828 [Eh]
	 Total Energy              =     -75.9129757788282546 [Eh]

	 ================> DF-SCS-MP2 Energies <==================
	-----------------------------------------------------------
	 SCS Same-Spin Scale       =       0.3333333333333333 [-]
	 SCS Opposite-Spin Scale   =       1.2000000000000000 [-]
	 SCS Same-Spin Energy      =      -0.0116556959042631 [Eh]
	 SCS Opposite-Spin Energy  =      -0.1358861942501922 [Eh]
	 SCS Correlation Energy    =      -0.1475418901544553 [Eh]
	 SCS Total Energy          =     -75.9123120860614335 [Eh]
	-----------------------------------------------------------

  -Total Gradient:
     Atom            X                  Y                   Z
    ------   -----------------  -----------------  -----------------
       1       -0.046909294021     0.002831798613     0.000000000000
       2        0.029569865425    -0.117352610239     0.000000000000
       3        0.017339428596     0.114520811625    -0.000000000000

*** Psi4 exiting successfully. Buy a developer a beer!
