                               Psi4 1.2.1 release

  ==> Input File <==

--------------------------------------------------------------------------
# density fitted hartree fock
molecule h2o {
0 1
H 0.0000000000 0.0000000000 1.1125000000
H 0.0000000000 0.7361215932 -0.4250000000
O 0.0000000000 0.0000000000 0.0000000000
}

set basis 6-31g
energy('hf')

--------------------------------------------------------------------------

    Molecular point group: cs

    Geometry (in Angstrom), charge = 0, multiplicity = 1:

       Center              X                  Y                   Z               Mass
    ------------   -----------------  -----------------  -----------------  -----------------
         H            0.041191477408    -1.074029262313     0.000000000000     1.007825032070
         H           -0.694930115792     0.463470737687     0.000000000000     1.007825032070
         O            0.041191477408     0.038470737687     0.000000000000    15.994914619560

  Charge       = 0
  Multiplicity = 1
  Basis Set: 6-31G
    Blend: 6-31G
  Basis Set: (6-31G AUX)
    Blend: CC-PVDZ-JKFIT

    Orbital Energies [Eh]
    ---------------------

    Doubly Occupied:

       1Ap   -20.549967     2Ap    -1.344721     3Ap    -0.720810
       4Ap    -0.525204     1App   -0.492561

  @DF-RHF Final Energy:   -75.94892342006995

   => Energetics <=

    Nuclear Repulsion Energy =              9.0962449077643974
    One-Electron Energy =                -122.8238035256863014
    Two-Electron Energy =                  37.7786351978519477
    Total Energy =                        -75.9489234200699457

  Dipole Moment: [D]
     X:    -1.9058      Y:    -1.3836      Z:     0.0000     Total:     2.3551

*** Psi4 exiting successfully. Buy a developer a beer!
