                               Psi4 1.2a1.dev429

  ==> Input File <==

--------------------------------------------------------------------------
# density-fitted hartree fock energies and gradients with 6-31g
molecule h20 {
0 1
O 0.0000000000 0.0000000000 0.0000000000
H 0.0000000000 0.0000000000 0.9000000000
H 0.0000000000 0.8356238926 -0.9958577761
}

set basis 6-31g

gradient('hf')
--------------------------------------------------------------------------

    Molecular point group: cs
  Charge       = 0
  Multiplicity = 1
  Basis Set: 6-31G
    Blend: 6-31G
  Basis Set: (6-31G AUX)
    Blend: CC-PVDZ-JKFIT

    Orbital Energies (a.u.)
    -----------------------

    Doubly Occupied:

       1Ap   -20.540756     2Ap    -1.285222     3Ap    -0.671255
       4Ap    -0.472169     1App   -0.469599

  @DF-RHF Final Energy:   -75.89234681787863

   => Energetics <=

    Nuclear Repulsion Energy =              8.2156859835500153
    One-Electron Energy =                -121.3380653273322309
    Two-Electron Energy =                  37.2300325259035816
    Total Energy =                        -75.8923468178786322
    Molecular point group: cs

    Geometry (in Angstrom), charge = 0, multiplicity = 1:

       Center              X                  Y                   Z               Mass
    ------------   -----------------  -----------------  -----------------  -----------------
           O          0.046759371022    -0.005363955432     0.000000000000    15.994914619560
           H          0.046759371022    -0.905363955432     0.000000000000     1.007825032070
           H         -0.788864521578     0.990493820668     0.000000000000     1.007825032070

  Basis Set: 6-31G
    Blend: 6-31G
  Basis Set: (6-31G AUX)
    Blend: CC-PVDZ-JKFIT

  -Total Gradient:
     Atom            X                  Y                   Z
    ------   -----------------  -----------------  -----------------
       1        0.031957625179    -0.197125717159     0.000000000000
       2        0.041252721368     0.065446210545     0.000000000000
       3       -0.073210346547     0.131679506615     0.000000000000

*** Psi4 exiting successfully. Buy a developer a beer!
