                               Psi4 1.2a1.dev429

  ==> Input File <==

--------------------------------------------------------------------------
# density-fitted hartree fock energies and gradients with 6-31g
molecule h20 {
0 1
O 0.0000000000 0.0000000000 0.0000000000
H 0.0000000000 0.0000000000 0.7000000000
H 0.0000000000 0.1562833599 -0.8863269777
}

set basis 6-31g

gradient('hf')
--------------------------------------------------------------------------

    Molecular point group: cs
  Charge       = 0
  Multiplicity = 1
  Basis Set: 6-31G
    Blend: 6-31G
  Basis Set: (6-31G AUX)
    Blend: CC-PVDZ-JKFIT

    Orbital Energies (a.u.)
    -----------------------

    Doubly Occupied:

       1Ap   -20.496646     2Ap    -1.404307     3Ap    -0.892410
       4Ap    -0.498155     1App   -0.496921

  @DF-RHF Final Energy:   -75.83206365280168

   => Energetics <=

    Nuclear Repulsion Energy =             11.0835161972954666
    One-Electron Energy =                -126.2542819238066443
    Two-Electron Energy =                  39.3387020737095057
    Total Energy =                        -75.8320636528016792
    Molecular point group: cs

    Geometry (in Angstrom), charge = 0, multiplicity = 1:

       Center              X                  Y                   Z               Mass
    ------------   -----------------  -----------------  -----------------  -----------------
           O          0.008745216209    -0.010426380048     0.000000000000    15.994914619560
           H          0.008745216209    -0.710426380048     0.000000000000     1.007825032070
           H         -0.147538143691     0.875900597652     0.000000000000     1.007825032070

  Basis Set: 6-31G
    Blend: 6-31G
  Basis Set: (6-31G AUX)
    Blend: CC-PVDZ-JKFIT

  -Total Gradient:
     Atom            X                  Y                   Z
    ------   -----------------  -----------------  -----------------
       1       -0.027580050944    -0.684354807688     0.000000000000
       2        0.013203119913     0.706753082329     0.000000000000
       3        0.014376931031    -0.022398274641     0.000000000000

*** Psi4 exiting successfully. Buy a developer a beer!
