                               Psi4 1.2a1.dev429

  ==> Input File <==

--------------------------------------------------------------------------
# density-fitted hartree fock energies and gradients with 6-31g
molecule o2 {
0 3
O 0.0000000000 0.0000000000 0.0000000000
O 0.0000000000 0.0000000000 1.3444444444
}

set basis 6-31g
set reference rohf

gradient('scf')
--------------------------------------------------------------------------

    Molecular point group: d2h
  Charge       = 0
  Multiplicity = 3
  Basis Set: 6-31G
    Blend: 6-31G
  Basis Set: (6-31G AUX)
    Blend: CC-PVDZ-JKFIT

    Orbital Energies (a.u.)
    -----------------------

    Doubly Occupied:

       1Ag   -20.770799     1B1u  -20.770269     2Ag    -1.574651
       2B1u   -1.148191     3Ag    -0.684365     1B2u   -0.666928
       1B3u   -0.666928

    Singly Occupied:

       1B3g   -0.276304     1B2g   -0.276304

  @DF-ROHF Final Energy:  -149.49875450853762

   => Energetics <=

    Nuclear Repulsion Energy =             25.1905844758608488
    One-Electron Energy =                -255.6287849873757523
    Two-Electron Energy =                  80.9394460029773057
    Total Energy =                       -149.4987545085376155
    Molecular point group: d2h

    Geometry (in Angstrom), charge = 0, multiplicity = 3:

       Center              X                  Y                   Z               Mass
    ------------   -----------------  -----------------  -----------------  -----------------
           O          0.000000000000     0.000000000000    -0.672222222200    15.994914619560
           O          0.000000000000     0.000000000000     0.672222222200    15.994914619560

  Basis Set: 6-31G
    Blend: 6-31G
  Basis Set: (6-31G AUX)
    Blend: CC-PVDZ-JKFIT

  -Total Gradient:
     Atom            X                  Y                   Z
    ------   -----------------  -----------------  -----------------
       1        0.000000000000     0.000000000000    -0.168732152442
       2        0.000000000000    -0.000000000000     0.168732152442

*** Psi4 exiting successfully. Buy a developer a beer!
