                               Psi4 1.2a1.dev429

  ==> Input File <==

--------------------------------------------------------------------------
# density-fitted hartree fock energies and gradients with 6-31g
molecule h2o {
0 1
O 0.0000000000 0.0000000000 0.0000000000
H 0.0000000000 0.0000000000 0.9000000000
H 0.0000000000 0.2736161147 -0.7517540966
}

set basis 6-31g

gradient('mp2')
--------------------------------------------------------------------------

    Molecular point group: cs
  Charge       = 0
  Multiplicity = 1
  Basis Set: 6-31G
    Blend: 6-31G
  Basis Set: (6-31G AUX)
    Blend: CC-PVDZ-JKFIT

    Orbital Energies (a.u.)
    -----------------------

    Doubly Occupied:

       1Ap   -20.503744     2Ap    -1.365513     3Ap    -0.848927
       4Ap    -0.493964     1App   -0.489166

  @DF-RHF Final Energy:   -75.92387967683133

   => Energetics <=

    Nuclear Repulsion Energy =             10.3116352122956343
    One-Electron Energy =                -125.0684015566551182
    Two-Electron Energy =                  38.8328866675281432
    Total Energy =                        -75.9238796768313335
  Basis Set: (6-31G AUX)
    Blend: CC-PVDZ-RI
    Molecular point group: cs

    Geometry (in Angstrom), charge = 0, multiplicity = 1:

       Center              X                  Y                   Z               Mass
    ------------   -----------------  -----------------  -----------------  -----------------
           O          0.015310856401     0.008295460746     0.000000000000    15.994914619560
           H          0.015310856401    -0.891704539254     0.000000000000     1.007825032070
           H         -0.258305258299     0.760049557346     0.000000000000     1.007825032070

  Basis Set: 6-31G
    Blend: 6-31G
  Basis Set: (6-31G AUX)
    Blend: CC-PVDZ-JKFIT
  Basis Set: (6-31G AUX)
    Blend: CC-PVDZ-JKFIT
	 Reference Energy          =     -75.9238796768313335 [Eh]
	 Singles Energy            =      -0.0000000000000000 [Eh]
	 Same-Spin Energy          =      -0.0284451280999625 [Eh]
	 Opposite-Spin Energy      =      -0.0896540242603506 [Eh]
	 Correlation Energy        =      -0.1180991523603131 [Eh]
	 Total Energy              =     -76.0419788291916490 [Eh]

	 ================> DF-SCS-MP2 Energies <==================
	-----------------------------------------------------------
	 SCS Same-Spin Scale       =       0.3333333333333333 [-]
	 SCS Opposite-Spin Scale   =       1.2000000000000000 [-]
	 SCS Same-Spin Energy      =      -0.0094817093666542 [Eh]
	 SCS Opposite-Spin Energy  =      -0.1075848291124207 [Eh]
	 SCS Correlation Energy    =      -0.1170665384790749 [Eh]
	 SCS Total Energy          =     -76.0409462153104130 [Eh]
	-----------------------------------------------------------

  -Total Gradient:
     Atom            X                  Y                   Z
    ------   -----------------  -----------------  -----------------
       1       -0.142487291760     0.207529585262    -0.000000000000
       2        0.021715825692     0.052857860045    -0.000000000000
       3        0.120771466068    -0.260387445308     0.000000000000

*** Psi4 exiting successfully. Buy a developer a beer!
