                               Psi4 1.2a1.dev429

  ==> Input File <==

--------------------------------------------------------------------------
# density-fitted hartree fock energies and gradients with 6-31g
molecule h2o {
0 1
O 0.0000000000 0.0000000000 0.0000000000
H 0.0000000000 0.0000000000 1.5000000000
H 0.0000000000 0.2736161147 -0.7517540966
}

set basis 6-31g

gradient('mp2')
--------------------------------------------------------------------------

    Molecular point group: cs
  Charge       = 0
  Multiplicity = 1
  Basis Set: 6-31G
    Blend: 6-31G
  Basis Set: (6-31G AUX)
    Blend: CC-PVDZ-JKFIT

    Orbital Energies (a.u.)
    -----------------------

    Doubly Occupied:

       1Ap   -20.500086     2Ap    -1.288316     3Ap    -0.647497
       1App   -0.443410     4Ap    -0.433668

  @DF-RHF Final Energy:   -75.77856146594502

   => Energetics <=

    Nuclear Repulsion Energy =              8.3473412025204770
    One-Electron Energy =                -121.6258518901566390
    Two-Electron Energy =                  37.4999492216911392
    Total Energy =                        -75.7785614659450175
  Basis Set: (6-31G AUX)
    Blend: CC-PVDZ-RI
    Molecular point group: cs

    Geometry (in Angstrom), charge = 0, multiplicity = 1:

       Center              X                  Y                   Z               Mass
    ------------   -----------------  -----------------  -----------------  -----------------
           O          0.015310856401     0.041869922728     0.000000000000    15.994914619560
           H          0.015310856401    -1.458130077272     0.000000000000     1.007825032070
           H         -0.258305258299     0.793624019328     0.000000000000     1.007825032070

  Basis Set: 6-31G
    Blend: 6-31G
  Basis Set: (6-31G AUX)
    Blend: CC-PVDZ-JKFIT
  Basis Set: (6-31G AUX)
    Blend: CC-PVDZ-JKFIT
	 Reference Energy          =     -75.7785614659450175 [Eh]
	 Singles Energy            =      -0.0000000000000000 [Eh]
	 Same-Spin Energy          =      -0.0327488919157598 [Eh]
	 Opposite-Spin Energy      =      -0.1068263071784329 [Eh]
	 Correlation Energy        =      -0.1395751990941927 [Eh]
	 Total Energy              =     -75.9181366650392135 [Eh]

	 ================> DF-SCS-MP2 Energies <==================
	-----------------------------------------------------------
	 SCS Same-Spin Scale       =       0.3333333333333333 [-]
	 SCS Opposite-Spin Scale   =       1.2000000000000000 [-]
	 SCS Same-Spin Energy      =      -0.0109162973052533 [Eh]
	 SCS Opposite-Spin Energy  =      -0.1281915686141195 [Eh]
	 SCS Correlation Energy    =      -0.1391078659193728 [Eh]
	 SCS Total Energy          =     -75.9176693318643885 [Eh]
	-----------------------------------------------------------

  -Total Gradient:
     Atom            X                  Y                   Z
    ------   -----------------  -----------------  -----------------
       1       -0.188456480890     0.403311727701     0.000000000000
       2        0.029147548851    -0.125404779274     0.000000000000
       3        0.159308932038    -0.277906948427    -0.000000000000

*** Psi4 exiting successfully. Buy a developer a beer!
