                               Psi4 1.2a1.dev429

  ==> Input File <==

--------------------------------------------------------------------------
# density-fitted hartree fock energies and gradients with 6-31g
molecule h20 {
0 1
O 0.0000000000 0.0000000000 0.0000000000
H 0.0000000000 0.0000000000 0.9000000000
H 0.0000000000 0.6928203230 -0.4000000000
}

set basis 6-31g

gradient('hf')
--------------------------------------------------------------------------

    Molecular point group: cs
  Charge       = 0
  Multiplicity = 1
  Basis Set: 6-31G
    Blend: 6-31G
  Basis Set: (6-31G AUX)
    Blend: CC-PVDZ-JKFIT

    Orbital Energies (a.u.)
    -----------------------

    Doubly Occupied:

       1Ap   -20.529219     2Ap    -1.405737     3Ap    -0.805867
       4Ap    -0.547312     1App   -0.503506

  @DF-RHF Final Energy:   -75.94851515875932

   => Energetics <=

    Nuclear Repulsion Energy =             10.3547983921961144
    One-Electron Energy =                -125.0233436400248621
    Two-Electron Energy =                  38.7200300890694251
    Total Energy =                        -75.9485151587593208
    Molecular point group: cs

    Geometry (in Angstrom), charge = 0, multiplicity = 1:

       Center              X                  Y                   Z               Mass
    ------------   -----------------  -----------------  -----------------  -----------------
           O          0.038768449325     0.027978718318     0.000000000000    15.994914619560
           H          0.038768449325    -0.872021281682     0.000000000000     1.007825032070
           H         -0.654051873675     0.427978718318     0.000000000000     1.007825032070

  Basis Set: 6-31G
    Blend: 6-31G
  Basis Set: (6-31G AUX)
    Blend: CC-PVDZ-JKFIT

  -Total Gradient:
     Atom            X                  Y                   Z
    ------   -----------------  -----------------  -----------------
       1       -0.256611761869     0.081027585177     0.000000000000
       2        0.005534060406     0.056743237772     0.000000000000
       3        0.251077701463    -0.137770822948     0.000000000000

*** Psi4 exiting successfully. Buy a developer a beer!
