                               Psi4 1.2a1.dev429

  ==> Input File <==

--------------------------------------------------------------------------
# density-fitted hartree fock energies and gradients with 6-31g
molecule h2o {
0 1
O 0.0000000000 0.0000000000 0.0000000000
H 0.0000000000 0.0000000000 1.2000000000
H 0.0000000000 0.9641814145 -1.1490666647
}

set basis 6-31g

gradient('mp2')
--------------------------------------------------------------------------

    Molecular point group: cs
  Charge       = 0
  Multiplicity = 1
  Basis Set: 6-31G
    Blend: 6-31G
  Basis Set: (6-31G AUX)
    Blend: CC-PVDZ-JKFIT

    Orbital Energies (a.u.)
    -----------------------

    Doubly Occupied:

       1Ap   -20.580288     2Ap    -1.207242     3Ap    -0.563894
       1App   -0.465650     4Ap    -0.444239

  @DF-RHF Final Energy:   -75.80531868675010

   => Energetics <=

    Nuclear Repulsion Energy =              6.5585260159086207
    One-Electron Energy =                -118.2050626077049742
    Two-Electron Energy =                  35.8412179050462498
    Total Energy =                        -75.8053186867500983
  Basis Set: (6-31G AUX)
    Blend: CC-PVDZ-RI
    Molecular point group: cs

    Geometry (in Angstrom), charge = 0, multiplicity = 1:

       Center              X                  Y                   Z               Mass
    ------------   -----------------  -----------------  -----------------  -----------------
           O          0.053953120408     0.002850098883     0.000000000000    15.994914619560
           H          0.053953120408    -1.197149901117     0.000000000000     1.007825032070
           H         -0.910228294092     1.151916763583     0.000000000000     1.007825032070

  Basis Set: 6-31G
    Blend: 6-31G
  Basis Set: (6-31G AUX)
    Blend: CC-PVDZ-JKFIT
  Basis Set: (6-31G AUX)
    Blend: CC-PVDZ-JKFIT
	 Reference Energy          =     -75.8053186867500983 [Eh]
	 Singles Energy            =      -0.0000000000000000 [Eh]
	 Same-Spin Energy          =      -0.0363956887670385 [Eh]
	 Opposite-Spin Energy      =      -0.1248504512854842 [Eh]
	 Correlation Energy        =      -0.1612461400525227 [Eh]
	 Total Energy              =     -75.9665648268026246 [Eh]

	 ================> DF-SCS-MP2 Energies <==================
	-----------------------------------------------------------
	 SCS Same-Spin Scale       =       0.3333333333333333 [-]
	 SCS Opposite-Spin Scale   =       1.2000000000000000 [-]
	 SCS Same-Spin Energy      =      -0.0121318962556795 [Eh]
	 SCS Opposite-Spin Energy  =      -0.1498205415425810 [Eh]
	 SCS Correlation Energy    =      -0.1619524377982605 [Eh]
	 SCS Total Energy          =     -75.9672711245483612 [Eh]
	-----------------------------------------------------------

  -Total Gradient:
     Atom            X                  Y                   Z
    ------   -----------------  -----------------  -----------------
       1       -0.002541539086    -0.002020633041     0.000000000000
       2        0.040776112577    -0.094294654845    -0.000000000000
       3       -0.038234573491     0.096315287885     0.000000000000

*** Psi4 exiting successfully. Buy a developer a beer!
