                               Psi4 1.2a1.dev429

  ==> Input File <==

--------------------------------------------------------------------------
# density-fitted hartree fock energies and gradients with 6-31g
molecule h2o {
0 1
O 0.0000000000 0.0000000000 0.0000000000
H 0.0000000000 0.0000000000 1.5000000000
H 0.0000000000 0.7794228634 -0.4500000000
}

set basis 6-31g

gradient('mp2')
--------------------------------------------------------------------------

    Molecular point group: cs
  Charge       = 0
  Multiplicity = 1
  Basis Set: 6-31G
    Blend: 6-31G
  Basis Set: (6-31G AUX)
    Blend: CC-PVDZ-JKFIT

    Orbital Energies (a.u.)
    -----------------------

    Doubly Occupied:

       1Ap   -20.577008     2Ap    -1.299639     3Ap    -0.641198
       1App   -0.487560     4Ap    -0.476304

  @DF-RHF Final Energy:   -75.86045355926929

   => Energetics <=

    Nuclear Repulsion Energy =              7.7780650024772422
    One-Electron Energy =                -120.3136190863568800
    Two-Electron Energy =                  36.6751005246103432
    Total Energy =                        -75.8604535592692883
  Basis Set: (6-31G AUX)
    Blend: CC-PVDZ-RI
    Molecular point group: cs

    Geometry (in Angstrom), charge = 0, multiplicity = 1:

       Center              X                  Y                   Z               Mass
    ------------   -----------------  -----------------  -----------------  -----------------
           O          0.043614505491     0.058755308468     0.000000000000    15.994914619560
           H          0.043614505491    -1.441244691532     0.000000000000     1.007825032070
           H         -0.735808357909     0.508755308468     0.000000000000     1.007825032070

  Basis Set: 6-31G
    Blend: 6-31G
  Basis Set: (6-31G AUX)
    Blend: CC-PVDZ-JKFIT
  Basis Set: (6-31G AUX)
    Blend: CC-PVDZ-JKFIT
	 Reference Energy          =     -75.8604535592692883 [Eh]
	 Singles Energy            =      -0.0000000000000000 [Eh]
	 Same-Spin Energy          =      -0.0333465339324738 [Eh]
	 Opposite-Spin Energy      =      -0.1152053378453606 [Eh]
	 Correlation Energy        =      -0.1485518717778344 [Eh]
	 Total Energy              =     -76.0090054310471288 [Eh]

	 ================> DF-SCS-MP2 Energies <==================
	-----------------------------------------------------------
	 SCS Same-Spin Scale       =       0.3333333333333333 [-]
	 SCS Opposite-Spin Scale   =       1.2000000000000000 [-]
	 SCS Same-Spin Energy      =      -0.0111155113108246 [Eh]
	 SCS Opposite-Spin Energy  =      -0.1382464054144327 [Eh]
	 SCS Correlation Energy    =      -0.1493619167252573 [Eh]
	 SCS Total Energy          =     -76.0098154759945430 [Eh]
	-----------------------------------------------------------

  -Total Gradient:
     Atom            X                  Y                   Z
    ------   -----------------  -----------------  -----------------
       1       -0.122402727746     0.133999256099    -0.000000000000
       2        0.017899308432    -0.108111413545    -0.000000000000
       3        0.104503419314    -0.025887842554     0.000000000000

*** Psi4 exiting successfully. Buy a developer a beer!
