                               Psi4 1.2a1.dev429

  ==> Input File <==

--------------------------------------------------------------------------
# density-fitted hartree fock energies and gradients with 6-31g
molecule h20 {
0 1
O 0.0000000000 0.0000000000 0.0000000000
H 0.0000000000 0.0000000000 0.7000000000
H 0.0000000000 0.7878462024 -0.1389185421
}

set basis 6-31g

gradient('hf')
--------------------------------------------------------------------------

    Molecular point group: cs
  Charge       = 0
  Multiplicity = 1
  Basis Set: 6-31G
    Blend: 6-31G
  Basis Set: (6-31G AUX)
    Blend: CC-PVDZ-JKFIT

    Orbital Energies (a.u.)
    -----------------------

    Doubly Occupied:

       1Ap   -20.524012     2Ap    -1.513399     3Ap    -0.830535
       4Ap    -0.599698     1App   -0.521188

  @DF-RHF Final Energy:   -75.81478616890480

   => Energetics <=

    Nuclear Repulsion Energy =             11.7993205959462486
    One-Electron Energy =                -127.2505520872117302
    Two-Electron Energy =                  39.6364453223606716
    Total Energy =                        -75.8147861689048028
    Molecular point group: cs

    Geometry (in Angstrom), charge = 0, multiplicity = 1:

       Center              X                  Y                   Z               Mass
    ------------   -----------------  -----------------  -----------------  -----------------
           O          0.044085853950     0.031396680128     0.000000000000    15.994914619560
           H          0.044085853950    -0.668603319872     0.000000000000     1.007825032070
           H         -0.743760348450     0.170315222228     0.000000000000     1.007825032070

  Basis Set: 6-31G
    Blend: 6-31G
  Basis Set: (6-31G AUX)
    Blend: CC-PVDZ-JKFIT

  -Total Gradient:
     Atom            X                  Y                   Z
    ------   -----------------  -----------------  -----------------
       1       -0.227314205797    -0.638098439895     0.000000000000
       2       -0.056884074008     0.738751666264     0.000000000000
       3        0.284198279804    -0.100653226369     0.000000000000

*** Psi4 exiting successfully. Buy a developer a beer!
