                               Psi4 1.2a1.dev429

  ==> Input File <==

--------------------------------------------------------------------------
# density-fitted hartree fock energies and gradients with 6-31g
molecule h2o {
0 1
O 0.0000000000 0.0000000000 0.0000000000
H 0.0000000000 0.0000000000 1.0000000000
H 0.0000000000 0.0000000000 -1.0000000000
}

set basis 6-31g

gradient('mp2')
--------------------------------------------------------------------------

    Molecular point group: d2h
  Charge       = 0
  Multiplicity = 1
  Basis Set: 6-31G
    Blend: 6-31G
  Basis Set: (6-31G AUX)
    Blend: CC-PVDZ-JKFIT

    Orbital Energies (a.u.)
    -----------------------

    Doubly Occupied:

       1Ag   -20.505757     2Ag    -1.269698     1B1u   -0.734558
       1B3u   -0.457703     1B2u   -0.457703

  @DF-RHF Final Energy:   -75.93309372365471

   => Energetics <=

    Nuclear Repulsion Energy =              8.7314239417349988
    One-Electron Energy =                -122.4781962302006946
    Two-Electron Energy =                  37.8136785648109850
    Total Energy =                        -75.9330937236547072
  Basis Set: (6-31G AUX)
    Blend: CC-PVDZ-RI
    Molecular point group: d2h

    Geometry (in Angstrom), charge = 0, multiplicity = 1:

       Center              X                  Y                   Z               Mass
    ------------   -----------------  -----------------  -----------------  -----------------
           O          0.000000000000     0.000000000000     0.000000000000    15.994914619560
           H          0.000000000000     0.000000000000     1.000000000000     1.007825032070
           H          0.000000000000     0.000000000000    -1.000000000000     1.007825032070

  Basis Set: 6-31G
    Blend: 6-31G
  Basis Set: (6-31G AUX)
    Blend: CC-PVDZ-JKFIT
  Basis Set: (6-31G AUX)
    Blend: CC-PVDZ-JKFIT
	 Reference Energy          =     -75.9330937236547072 [Eh]
	 Singles Energy            =      -0.0000000000000000 [Eh]
	 Same-Spin Energy          =      -0.0309501754433516 [Eh]
	 Opposite-Spin Energy      =      -0.0967646418404607 [Eh]
	 Correlation Energy        =      -0.1277148172838123 [Eh]
	 Total Energy              =     -76.0608085409385239 [Eh]

	 ================> DF-SCS-MP2 Energies <==================
	-----------------------------------------------------------
	 SCS Same-Spin Scale       =       0.3333333333333333 [-]
	 SCS Opposite-Spin Scale   =       1.2000000000000000 [-]
	 SCS Same-Spin Energy      =      -0.0103167251477839 [Eh]
	 SCS Opposite-Spin Energy  =      -0.1161175702085529 [Eh]
	 SCS Correlation Energy    =      -0.1264342953563367 [Eh]
	 SCS Total Energy          =     -76.0595280190110401 [Eh]
	-----------------------------------------------------------

  -Total Gradient:
     Atom            X                  Y                   Z
    ------   -----------------  -----------------  -----------------
       1       -0.000000000000     0.000000000000     0.000000000004
       2        0.000000000000    -0.000000000000     0.058404778819
       3        0.000000000000    -0.000000000000    -0.058404778824

*** Psi4 exiting successfully. Buy a developer a beer!
