                               Psi4 1.2a1.dev429

  ==> Input File <==

--------------------------------------------------------------------------
# density-fitted hartree fock energies and gradients with 6-31g
molecule h2o {
0 1
O 0.0000000000 0.0000000000 0.0000000000
H 0.0000000000 0.0000000000 1.0000000000
H 0.0000000000 1.2124355653 -0.7000000000
}

set basis 6-31g

gradient('mp2')
--------------------------------------------------------------------------

    Molecular point group: cs
  Charge       = 0
  Multiplicity = 1
  Basis Set: 6-31G
    Blend: 6-31G
  Basis Set: (6-31G AUX)
    Blend: CC-PVDZ-JKFIT

    Orbital Energies (a.u.)
    -----------------------

    Doubly Occupied:

       1Ap   -20.583592     2Ap    -1.270997     3Ap    -0.625119
       4Ap    -0.486673     1App   -0.485595

  @DF-RHF Final Energy:   -75.88795246602317

   => Energetics <=

    Nuclear Repulsion Energy =              7.5107173520516906
    One-Electron Energy =                -119.8933858758487503
    Two-Electron Energy =                  36.4947160577738998
    Total Energy =                        -75.8879524660231652
  Basis Set: (6-31G AUX)
    Blend: CC-PVDZ-RI
    Molecular point group: cs

    Geometry (in Angstrom), charge = 0, multiplicity = 1:

       Center              X                  Y                   Z               Mass
    ------------   -----------------  -----------------  -----------------  -----------------
           O          0.067844786321     0.016787230991     0.000000000000    15.994914619560
           H          0.067844786321    -0.983212769009     0.000000000000     1.007825032070
           H         -1.144590778979     0.716787230991     0.000000000000     1.007825032070

  Basis Set: 6-31G
    Blend: 6-31G
  Basis Set: (6-31G AUX)
    Blend: CC-PVDZ-JKFIT
  Basis Set: (6-31G AUX)
    Blend: CC-PVDZ-JKFIT
	 Reference Energy          =     -75.8879524660231652 [Eh]
	 Singles Energy            =      -0.0000000000000000 [Eh]
	 Same-Spin Energy          =      -0.0340069660430800 [Eh]
	 Opposite-Spin Energy      =      -0.1150698070754255 [Eh]
	 Correlation Energy        =      -0.1490767731185055 [Eh]
	 Total Energy              =     -76.0370292391416740 [Eh]

	 ================> DF-SCS-MP2 Energies <==================
	-----------------------------------------------------------
	 SCS Same-Spin Scale       =       0.3333333333333333 [-]
	 SCS Opposite-Spin Scale   =       1.2000000000000000 [-]
	 SCS Same-Spin Energy      =      -0.0113356553476933 [Eh]
	 SCS Opposite-Spin Energy  =      -0.1380837684905106 [Eh]
	 SCS Correlation Energy    =      -0.1494194238382040 [Eh]
	 SCS Total Energy          =     -76.0373718898613760 [Eh]
	-----------------------------------------------------------

  -Total Gradient:
     Atom            X                  Y                   Z
    ------   -----------------  -----------------  -----------------
       1        0.059384720825    -0.058785666036    -0.000000000000
       2        0.027728669474    -0.014379494183    -0.000000000000
       3       -0.087113390299     0.073165160219     0.000000000000

*** Psi4 exiting successfully. Buy a developer a beer!
