                               Psi4 1.2a1.dev429

  ==> Input File <==

--------------------------------------------------------------------------
# density-fitted hartree fock energies and gradients with 6-31g
molecule h2o {
0 1
O 0.0000000000 0.0000000000 0.0000000000
H 0.0000000000 0.0000000000 1.5000000000
H 0.0000000000 0.8356238926 -0.9958577761
}

set basis 6-31g

gradient('mp2')
--------------------------------------------------------------------------

    Molecular point group: cs
  Charge       = 0
  Multiplicity = 1
  Basis Set: 6-31G
    Blend: 6-31G
  Basis Set: (6-31G AUX)
    Blend: CC-PVDZ-JKFIT

    Orbital Energies (a.u.)
    -----------------------

    Doubly Occupied:

       1Ap   -20.589101     2Ap    -1.196969     3Ap    -0.542715
       1App   -0.466887     4Ap    -0.442556

  @DF-RHF Final Energy:   -75.78181127321247

   => Energetics <=

    Nuclear Repulsion Energy =              6.2798065789858777
    One-Electron Energy =                -117.6467784326197972
    Two-Electron Energy =                  35.5851605804214373
    Total Energy =                        -75.7818112732124689
  Basis Set: (6-31G AUX)
    Blend: CC-PVDZ-RI
    Molecular point group: cs

    Geometry (in Angstrom), charge = 0, multiplicity = 1:

       Center              X                  Y                   Z               Mass
    ------------   -----------------  -----------------  -----------------  -----------------
           O          0.046759371022     0.028210506550     0.000000000000    15.994914619560
           H          0.046759371022    -1.471789493450     0.000000000000     1.007825032070
           H         -0.788864521578     1.024068282650     0.000000000000     1.007825032070

  Basis Set: 6-31G
    Blend: 6-31G
  Basis Set: (6-31G AUX)
    Blend: CC-PVDZ-JKFIT
  Basis Set: (6-31G AUX)
    Blend: CC-PVDZ-JKFIT
	 Reference Energy          =     -75.7818112732124689 [Eh]
	 Singles Energy            =      -0.0000000000000000 [Eh]
	 Same-Spin Energy          =      -0.0372137508038395 [Eh]
	 Opposite-Spin Energy      =      -0.1289440560741030 [Eh]
	 Correlation Energy        =      -0.1661578068779425 [Eh]
	 Total Energy              =     -75.9479690800904166 [Eh]

	 ================> DF-SCS-MP2 Energies <==================
	-----------------------------------------------------------
	 SCS Same-Spin Scale       =       0.3333333333333333 [-]
	 SCS Opposite-Spin Scale   =       1.2000000000000000 [-]
	 SCS Same-Spin Energy      =      -0.0124045836012798 [Eh]
	 SCS Opposite-Spin Energy  =      -0.1547328672889236 [Eh]
	 SCS Correlation Energy    =      -0.1671374508902035 [Eh]
	 SCS Total Energy          =     -75.9489487241026779 [Eh]
	-----------------------------------------------------------

  -Total Gradient:
     Atom            X                  Y                   Z
    ------   -----------------  -----------------  -----------------
       1        0.001944294682    -0.006386264356    -0.000000000000
       2        0.033272640737    -0.095310229993     0.000000000000
       3       -0.035216935419     0.101696494349     0.000000000000

*** Psi4 exiting successfully. Buy a developer a beer!
