                               Psi4 1.3.1 release

  ==> Input File <==

--------------------------------------------------------------------------
# density fitted hartree fock
molecule h2o {
0 1
H 0.0000000000 0.0000000000 1.0000000000
H 0.0000000000 0.8286887254 -0.1891427939
O 0.0000000000 0.0000000000 0.0000000000
}

set basis 6-31g
energy('hf')

--------------------------------------------------------------------------

    Molecular point group: cs

    Geometry (in Angstrom), charge = 0, multiplicity = 1:

       Center              X                  Y                   Z               Mass
    ------------   -----------------  -----------------  -----------------  -----------------
         H            0.046371296849    -0.954626509262     0.000000000000     1.007825032230
         H           -0.782317428551     0.234516284638     0.000000000000     1.007825032230
         O            0.046371296849     0.045373490738     0.000000000000    15.994914619570

  Charge       = 0
  Multiplicity = 1
  Basis Set: 6-31G
    Blend: 6-31G
  Basis Set: (6-31G AUX)
    Blend: CC-PVDZ-JKFIT

    Orbital Energies [Eh]
    ---------------------

    Doubly Occupied:

       1Ap   -20.554780     2Ap    -1.383088     3Ap    -0.726399
       4Ap    -0.567322     1App   -0.504611

  @DF-RHF Final Energy:   -75.96675594213221

   => Energetics <=

    Nuclear Repulsion Energy =              9.5790077640638849
    One-Electron Energy =                -123.6191204015379128
    Two-Electron Energy =                  38.0733566953418148
    Total Energy =                        -75.9667559421322096

  Dipole Moment: [D]
     X:    -2.0228      Y:    -1.7007      Z:     0.0000     Total:     2.6427

*** Psi4 exiting successfully. Buy a developer a beer!
