                               Psi4 1.2a1.dev429

  ==> Input File <==

--------------------------------------------------------------------------
# density-fitted hartree fock energies and gradients with 6-31g
molecule h20 {
0 1
O 0.0000000000 0.0000000000 0.0000000000
H 0.0000000000 0.0000000000 0.8000000000
H 0.0000000000 1.3155696691 -0.4788282007
}

set basis 6-31g

gradient('hf')
--------------------------------------------------------------------------

    Molecular point group: cs
  Charge       = 0
  Multiplicity = 1
  Basis Set: 6-31G
    Blend: 6-31G
  Basis Set: (6-31G AUX)
    Blend: CC-PVDZ-JKFIT

    Orbital Energies (a.u.)
    -----------------------

    Doubly Occupied:

       1Ap   -20.572015     2Ap    -1.355757     3Ap    -0.674432
       4Ap    -0.506371     1App   -0.497999

  @DF-RHF Final Energy:   -75.85886573461576

   => Energetics <=

    Nuclear Repulsion Energy =              8.6040689095420824
    One-Electron Energy =                -121.7127222239357422
    Two-Electron Energy =                  37.2497875797779017
    Total Energy =                        -75.8588657346157618
    Molecular point group: cs

    Geometry (in Angstrom), charge = 0, multiplicity = 1:

       Center              X                  Y                   Z               Mass
    ------------   -----------------  -----------------  -----------------  -----------------
           O          0.073615906399     0.017971950609     0.000000000000    15.994914619560
           H          0.073615906399    -0.782028049391     0.000000000000     1.007825032070
           H         -1.241953762701     0.496800151309     0.000000000000     1.007825032070

  Basis Set: 6-31G
    Blend: 6-31G
  Basis Set: (6-31G AUX)
    Blend: CC-PVDZ-JKFIT

  -Total Gradient:
     Atom            X                  Y                   Z
    ------   -----------------  -----------------  -----------------
       1        0.114160663782    -0.356217855209     0.000000000000
       2        0.012491322007     0.302524310229     0.000000000000
       3       -0.126651985789     0.053693544980     0.000000000000

*** Psi4 exiting successfully. Buy a developer a beer!
