                               Psi4 1.2a1.dev429

  ==> Input File <==

--------------------------------------------------------------------------
# density-fitted hartree fock energies and gradients with 6-31g
molecule h2o {
0 1
O 0.0000000000 0.0000000000 0.0000000000
H 0.0000000000 0.0000000000 1.3000000000
H 0.0000000000 1.2000000000 0.0000000000
}

set basis 6-31g

gradient('mp2')
--------------------------------------------------------------------------

    Molecular point group: cs
  Charge       = 0
  Multiplicity = 1
  Basis Set: 6-31G
    Blend: 6-31G
  Basis Set: (6-31G AUX)
    Blend: CC-PVDZ-JKFIT

    Orbital Energies (a.u.)
    -----------------------

    Doubly Occupied:

       1Ap   -20.625294     2Ap    -1.263624     3Ap    -0.570040
       4Ap    -0.535126     1App   -0.504657

  @DF-RHF Final Energy:   -75.88450307557655

   => Energetics <=

    Nuclear Repulsion Energy =              7.0834318298899666
    One-Electron Energy =                -118.9383875630076375
    Two-Electron Energy =                  35.9704526575411307
    Total Energy =                        -75.8845030755765464
  Basis Set: (6-31G AUX)
    Blend: CC-PVDZ-RI
    Molecular point group: cs

    Geometry (in Angstrom), charge = 0, multiplicity = 1:

       Center              X                  Y                   Z               Mass
    ------------   -----------------  -----------------  -----------------  -----------------
           O          0.067148923963     0.072744667627     0.000000000000    15.994914619560
           H          0.067148923963    -1.227255332373     0.000000000000     1.007825032070
           H         -1.132851076037     0.072744667627     0.000000000000     1.007825032070

  Basis Set: 6-31G
    Blend: 6-31G
  Basis Set: (6-31G AUX)
    Blend: CC-PVDZ-JKFIT
  Basis Set: (6-31G AUX)
    Blend: CC-PVDZ-JKFIT
	 Reference Energy          =     -75.8845030755765464 [Eh]
	 Singles Energy            =      -0.0000000000000000 [Eh]
	 Same-Spin Energy          =      -0.0364743750411607 [Eh]
	 Opposite-Spin Energy      =      -0.1232045015150440 [Eh]
	 Correlation Energy        =      -0.1596788765562047 [Eh]
	 Total Energy              =     -76.0441819521327460 [Eh]

	 ================> DF-SCS-MP2 Energies <==================
	-----------------------------------------------------------
	 SCS Same-Spin Scale       =       0.3333333333333333 [-]
	 SCS Opposite-Spin Scale   =       1.2000000000000000 [-]
	 SCS Same-Spin Energy      =      -0.0121581250137202 [Eh]
	 SCS Opposite-Spin Energy  =      -0.1478454018180528 [Eh]
	 SCS Correlation Energy    =      -0.1600035268317731 [Eh]
	 SCS Total Energy          =     -76.0445066024083189 [Eh]
	-----------------------------------------------------------

  -Total Gradient:
     Atom            X                  Y                   Z
    ------   -----------------  -----------------  -----------------
       1        0.092343904959     0.103771693685    -0.000000000000
       2       -0.007015612642    -0.096171442761     0.000000000000
       3       -0.085328292317    -0.007600250924     0.000000000000

*** Psi4 exiting successfully. Buy a developer a beer!
