                               Psi4 1.2a1.dev429

  ==> Input File <==

--------------------------------------------------------------------------
# density-fitted hartree fock energies and gradients with 6-31g
molecule o2 {
0 3
O 0.0000000000 0.0000000000 0.0000000000
O 0.0000000000 0.0000000000 0.9000000000
}

set basis 6-31g
set reference rohf

energy('scf')
--------------------------------------------------------------------------

    Molecular point group: d2h

    Geometry (in Angstrom), charge = 0, multiplicity = 3:

       Center              X                  Y                   Z               Mass
    ------------   -----------------  -----------------  -----------------  -----------------
           O          0.000000000000     0.000000000000    -0.450000000000    15.994914619560
           O          0.000000000000     0.000000000000     0.450000000000    15.994914619560

  Charge       = 0
  Multiplicity = 3
  Basis Set: 6-31G
    Blend: 6-31G
  Basis Set: (6-31G AUX)
    Blend: CC-PVDZ-JKFIT

    Orbital Energies (a.u.)
    -----------------------

    Doubly Occupied:

       1Ag   -20.707072     1B1u  -20.701411     2Ag    -2.082335
       2B1u   -0.978996     1B2u   -0.903771     1B3u   -0.903771
       3Ag    -0.811080

    Singly Occupied:

       1B3g   -0.052399     1B2g   -0.052399

  @DF-ROHF Final Energy:  -149.20775764482903

   => Energetics <=

    Nuclear Repulsion Energy =             37.6303792775111106
    One-Electron Energy =                -278.7336412314541576
    Two-Electron Energy =                  91.8955043091140027
    Total Energy =                       -149.2077576448290301
*** Psi4 exiting successfully. Buy a developer a beer!
