                               Psi4 1.2a1.dev429

  ==> Input File <==

--------------------------------------------------------------------------
# density-fitted hartree fock energies and gradients with 6-31g
molecule h2o {
0 1
O 0.0000000000 0.0000000000 0.0000000000
H 0.0000000000 0.0000000000 1.0000000000
H 0.0000000000 0.5130302150 -1.4095389312
}

set basis 6-31g

gradient('mp2')
--------------------------------------------------------------------------

    Molecular point group: cs
  Charge       = 0
  Multiplicity = 1
  Basis Set: 6-31G
    Blend: 6-31G
  Basis Set: (6-31G AUX)
    Blend: CC-PVDZ-JKFIT

    Orbital Energies (a.u.)
    -----------------------

    Doubly Occupied:

       1Ap   -20.520317     2Ap    -1.215219     3Ap    -0.598135
       1App   -0.437183     4Ap    -0.425402

  @DF-RHF Final Energy:   -75.81158886920126

   => Energetics <=

    Nuclear Repulsion Energy =              7.2704988344871104
    One-Electron Energy =                -119.7716639325776100
    Two-Electron Energy =                  36.6895762288892442
    Total Energy =                        -75.8115888692012447
  Basis Set: (6-31G AUX)
    Blend: CC-PVDZ-RI
    Molecular point group: cs

    Geometry (in Angstrom), charge = 0, multiplicity = 1:

       Center              X                  Y                   Z               Mass
    ------------   -----------------  -----------------  -----------------  -----------------
           O          0.028707855748    -0.022916748793     0.000000000000    15.994914619560
           H          0.028707855748    -1.022916748793     0.000000000000     1.007825032070
           H         -0.484322359252     1.386622182407     0.000000000000     1.007825032070

  Basis Set: 6-31G
    Blend: 6-31G
  Basis Set: (6-31G AUX)
    Blend: CC-PVDZ-JKFIT
  Basis Set: (6-31G AUX)
    Blend: CC-PVDZ-JKFIT
	 Reference Energy          =     -75.8115888692012589 [Eh]
	 Singles Energy            =      -0.0000000000000000 [Eh]
	 Same-Spin Energy          =      -0.0344110863809607 [Eh]
	 Opposite-Spin Energy      =      -0.1126124230263108 [Eh]
	 Correlation Energy        =      -0.1470235094072716 [Eh]
	 Total Energy              =     -75.9586123786085352 [Eh]

	 ================> DF-SCS-MP2 Energies <==================
	-----------------------------------------------------------
	 SCS Same-Spin Scale       =       0.3333333333333333 [-]
	 SCS Opposite-Spin Scale   =       1.2000000000000000 [-]
	 SCS Same-Spin Energy      =      -0.0114703621269869 [Eh]
	 SCS Opposite-Spin Energy  =      -0.1351349076315730 [Eh]
	 SCS Correlation Energy    =      -0.1466052697585599 [Eh]
	 SCS Total Energy          =     -75.9581941389598256 [Eh]
	-----------------------------------------------------------

  -Total Gradient:
     Atom            X                  Y                   Z
    ------   -----------------  -----------------  -----------------
       1       -0.042358208928    -0.093803637115     0.000000000000
       2        0.050195043962    -0.025568214468    -0.000000000000
       3       -0.007836835034     0.119371851583     0.000000000000

*** Psi4 exiting successfully. Buy a developer a beer!
