                               Psi4 1.2a1.dev429

  ==> Input File <==

--------------------------------------------------------------------------
# density-fitted hartree fock energies and gradients with 6-31g
molecule h2o {
0 1
O 0.0000000000 0.0000000000 0.0000000000
H 0.0000000000 0.0000000000 1.0000000000
H 0.0000000000 0.5785088487 -0.6894399988
}

set basis 6-31g

gradient('mp2')
--------------------------------------------------------------------------

    Molecular point group: cs
  Charge       = 0
  Multiplicity = 1
  Basis Set: 6-31G
    Blend: 6-31G
  Basis Set: (6-31G AUX)
    Blend: CC-PVDZ-JKFIT

    Orbital Energies (a.u.)
    -----------------------

    Doubly Occupied:

       1Ap   -20.527799     2Ap    -1.324418     3Ap    -0.758882
       4Ap    -0.498724     1App   -0.482308

  @DF-RHF Final Energy:   -75.96344061927215

   => Energetics <=

    Nuclear Repulsion Energy =              9.2335494603179118
    One-Electron Energy =                -123.2097171238854258
    Two-Electron Energy =                  38.0127270442953531
    Total Energy =                        -75.9634406192721485
  Basis Set: (6-31G AUX)
    Blend: CC-PVDZ-RI
    Molecular point group: cs

    Geometry (in Angstrom), charge = 0, multiplicity = 1:

       Center              X                  Y                   Z               Mass
    ------------   -----------------  -----------------  -----------------  -----------------
           O          0.032371872245     0.017378141589     0.000000000000    15.994914619560
           H          0.032371872245    -0.982621858411     0.000000000000     1.007825032070
           H         -0.546136976455     0.706818140389     0.000000000000     1.007825032070

  Basis Set: 6-31G
    Blend: 6-31G
  Basis Set: (6-31G AUX)
    Blend: CC-PVDZ-JKFIT
  Basis Set: (6-31G AUX)
    Blend: CC-PVDZ-JKFIT
	 Reference Energy          =     -75.9634406192721485 [Eh]
	 Singles Energy            =      -0.0000000000000000 [Eh]
	 Same-Spin Energy          =      -0.0303585057924189 [Eh]
	 Opposite-Spin Energy      =      -0.0962320524708545 [Eh]
	 Correlation Energy        =      -0.1265905582632734 [Eh]
	 Total Energy              =     -76.0900311775354226 [Eh]

	 ================> DF-SCS-MP2 Energies <==================
	-----------------------------------------------------------
	 SCS Same-Spin Scale       =       0.3333333333333333 [-]
	 SCS Opposite-Spin Scale   =       1.2000000000000000 [-]
	 SCS Same-Spin Energy      =      -0.0101195019308063 [Eh]
	 SCS Opposite-Spin Energy  =      -0.1154784629650254 [Eh]
	 SCS Correlation Energy    =      -0.1255979648958317 [Eh]
	 SCS Total Energy          =     -76.0890385841679802 [Eh]
	-----------------------------------------------------------

  -Total Gradient:
     Atom            X                  Y                   Z
    ------   -----------------  -----------------  -----------------
       1       -0.102584816220     0.080974072133    -0.000000000000
       2        0.029910188079    -0.046066037237    -0.000000000000
       3        0.072674628141    -0.034908034896     0.000000000000

*** Psi4 exiting successfully. Buy a developer a beer!
