                               Psi4 1.2a1.dev429

  ==> Input File <==

--------------------------------------------------------------------------
# density-fitted hartree fock energies and gradients with 6-31g
molecule h2o {
0 1
O 0.0000000000 0.0000000000 0.0000000000
H 0.0000000000 0.0000000000 1.4000000000
H 0.0000000000 0.5500000000 -0.9526279442
}

set basis 6-31g

gradient('mp2')
--------------------------------------------------------------------------

    Molecular point group: cs
  Charge       = 0
  Multiplicity = 1
  Basis Set: 6-31G
    Blend: 6-31G
  Basis Set: (6-31G AUX)
    Blend: CC-PVDZ-JKFIT

    Orbital Energies (a.u.)
    -----------------------

    Doubly Occupied:

       1Ap   -20.546614     2Ap    -1.212539     3Ap    -0.597128
       1App   -0.451358     4Ap    -0.441402

  @DF-RHF Final Energy:   -75.83748422071257

   => Energetics <=

    Nuclear Repulsion Energy =              7.0914559113514652
    One-Electron Energy =                -119.3597984101043608
    Two-Electron Energy =                  36.4308582780403256
    Total Energy =                        -75.8374842207125823
  Basis Set: (6-31G AUX)
    Blend: CC-PVDZ-RI
    Molecular point group: cs

    Geometry (in Angstrom), charge = 0, multiplicity = 1:

       Center              X                  Y                   Z               Mass
    ------------   -----------------  -----------------  -----------------  -----------------
           O          0.030776590150     0.025033793465     0.000000000000    15.994914619560
           H          0.030776590150    -1.374966206535     0.000000000000     1.007825032070
           H         -0.519223409850     0.977661737665     0.000000000000     1.007825032070

  Basis Set: 6-31G
    Blend: 6-31G
  Basis Set: (6-31G AUX)
    Blend: CC-PVDZ-JKFIT
  Basis Set: (6-31G AUX)
    Blend: CC-PVDZ-JKFIT
	 Reference Energy          =     -75.8374842207125681 [Eh]
	 Singles Energy            =      -0.0000000000000000 [Eh]
	 Same-Spin Energy          =      -0.0347377898077112 [Eh]
	 Opposite-Spin Energy      =      -0.1143276811512281 [Eh]
	 Correlation Energy        =      -0.1490654709589393 [Eh]
	 Total Energy              =     -75.9865496916715131 [Eh]

	 ================> DF-SCS-MP2 Energies <==================
	-----------------------------------------------------------
	 SCS Same-Spin Scale       =       0.3333333333333333 [-]
	 SCS Opposite-Spin Scale   =       1.2000000000000000 [-]
	 SCS Same-Spin Energy      =      -0.0115792632692371 [Eh]
	 SCS Opposite-Spin Energy  =      -0.1371932173814737 [Eh]
	 SCS Correlation Energy    =      -0.1487724806507108 [Eh]
	 SCS Total Energy          =     -75.9862567013632741 [Eh]
	-----------------------------------------------------------

  -Total Gradient:
     Atom            X                  Y                   Z
    ------   -----------------  -----------------  -----------------
       1       -0.036636880339     0.023078944909     0.000000000000
       2        0.036323274207    -0.114995007512    -0.000000000000
       3        0.000313606132     0.091916062603    -0.000000000000

*** Psi4 exiting successfully. Buy a developer a beer!
