                               Psi4 1.2a1.dev429

  ==> Input File <==

--------------------------------------------------------------------------
# density-fitted hartree fock energies and gradients with 6-31g
molecule h20 {
0 1
O 0.0000000000 0.0000000000 0.0000000000
O 0.0000000000 0.0000000000 1.2101010101
}

set basis 6-31g

gradient('hf')
--------------------------------------------------------------------------

    Molecular point group: d2h
  Charge       = 0
  Multiplicity = 1
  Basis Set: 6-31G
    Blend: 6-31G
  Basis Set: (6-31G AUX)
    Blend: CC-PVDZ-JKFIT

    Orbital Energies (a.u.)
    -----------------------

    Doubly Occupied:

       1Ag   -20.758168     1B1u  -20.757334     2Ag    -1.692518
       2B1u   -1.106087     1B2u   -0.782559     3Ag    -0.727167
       1B3u   -0.656209     1B3g   -0.488823

  @DF-RHF Final Energy:  -149.46112618301328

   => Energetics <=

    Nuclear Repulsion Energy =             27.9872019501589229
    One-Electron Energy =                -260.9589252446094747
    Two-Electron Energy =                  83.5105971114372920
    Total Energy =                       -149.4611261830132776
    Molecular point group: d2h

    Geometry (in Angstrom), charge = 0, multiplicity = 1:

       Center              X                  Y                   Z               Mass
    ------------   -----------------  -----------------  -----------------  -----------------
           O          0.000000000000     0.000000000000    -0.605050505050    15.994914619560
           O          0.000000000000     0.000000000000     0.605050505050    15.994914619560

  Basis Set: 6-31G
    Blend: 6-31G
  Basis Set: (6-31G AUX)
    Blend: CC-PVDZ-JKFIT

  -Total Gradient:
     Atom            X                  Y                   Z
    ------   -----------------  -----------------  -----------------
       1        0.000000000000    -0.000000000000    -0.027983465700
       2       -0.000000000000     0.000000000000     0.027983465700

*** Psi4 exiting successfully. Buy a developer a beer!
