                               Psi4 1.2a1.dev429

  ==> Input File <==

--------------------------------------------------------------------------
# density-fitted hartree fock energies and gradients with 6-31g
molecule o2 {
0 3
O 0.0000000000 0.0000000000 0.0000000000
O 0.0000000000 0.0000000000 1.2101010101
}

set basis 6-31g
set reference rohf

gradient('scf')
--------------------------------------------------------------------------

    Molecular point group: d2h
  Charge       = 0
  Multiplicity = 3
  Basis Set: 6-31G
    Blend: 6-31G
  Basis Set: (6-31G AUX)
    Blend: CC-PVDZ-JKFIT

    Orbital Energies (a.u.)
    -----------------------

    Doubly Occupied:

       1Ag   -20.748972     1B1u  -20.748147     2Ag    -1.687600
       2B1u   -1.102071     3Ag    -0.722956     1B3u   -0.714793
       1B2u   -0.714793

    Singly Occupied:

       1B2g   -0.230282     1B3g   -0.230282

  @DF-ROHF Final Energy:  -149.52758336021776

   => Energetics <=

    Nuclear Repulsion Energy =             27.9872019501589229
    One-Electron Energy =                -261.0436919059720822
    Two-Electron Energy =                  83.5289065955953873
    Total Energy =                       -149.5275833602177613
    Molecular point group: d2h

    Geometry (in Angstrom), charge = 0, multiplicity = 3:

       Center              X                  Y                   Z               Mass
    ------------   -----------------  -----------------  -----------------  -----------------
           O          0.000000000000     0.000000000000    -0.605050505050    15.994914619560
           O          0.000000000000     0.000000000000     0.605050505050    15.994914619560

  Basis Set: 6-31G
    Blend: 6-31G
  Basis Set: (6-31G AUX)
    Blend: CC-PVDZ-JKFIT

  -Total Gradient:
     Atom            X                  Y                   Z
    ------   -----------------  -----------------  -----------------
       1        0.000000000000    -0.000000000000    -0.036140034527
       2        0.000000000000     0.000000000000     0.036140034527

*** Psi4 exiting successfully. Buy a developer a beer!
