                               Psi4 1.3.1 release

  ==> Input File <==

--------------------------------------------------------------------------
# density fitted hartree fock
molecule h2o {
0 1
H 0.0000000000 0.0000000000 1.1500000000
H 0.0000000000 1.0361141981 -0.4989663000
O 0.0000000000 0.0000000000 0.0000000000
}

set basis 6-31g
energy('hf')

--------------------------------------------------------------------------

    Molecular point group: c2v

    Geometry (in Angstrom), charge = 0, multiplicity = 1:

       Center              X                  Y                   Z               Mass
    ------------   -----------------  -----------------  -----------------  -----------------
         H            0.000000000000    -0.973732829122     0.543363240201     1.007825032230
         H           -0.000000000000     0.973732829122     0.543363240201     1.007825032230
         O           -0.000000000000     0.000000000000    -0.068473647793    15.994914619570

  Charge       = 0
  Multiplicity = 1
  Basis Set: 6-31G
    Blend: 6-31G
  Basis Set: (6-31G AUX)
    Blend: CC-PVDZ-JKFIT

    Orbital Energies [Eh]
    ---------------------

    Doubly Occupied:

       1A1   -20.585919     2A1    -1.266773     1B2    -0.627083
       3A1    -0.512010     1B1    -0.487915

  @DF-RHF Final Energy:   -75.92903853421711

   => Energetics <=

    Nuclear Repulsion Energy =              7.6341916204302382
    One-Electron Energy =                -120.1670617320302483
    Two-Electron Energy =                  36.6038315773828913
    Total Energy =                        -75.9290385342171135

  Dipole Moment: [D]
     X:    -0.0000      Y:     0.0000      Z:     2.4436     Total:     2.4436

*** Psi4 exiting successfully. Buy a developer a beer!
