                               Psi4 1.2a1.dev429

  ==> Input File <==

--------------------------------------------------------------------------
# density-fitted hartree fock energies and gradients with 6-31g
molecule h20 {
0 1
O 0.0000000000 0.0000000000 0.0000000000
H 0.0000000000 0.0000000000 1.1000000000
H 0.0000000000 0.7713451316 -0.9192533317
}

set basis 6-31g

gradient('hf')
--------------------------------------------------------------------------

    Molecular point group: cs
  Charge       = 0
  Multiplicity = 1
  Basis Set: 6-31G
    Blend: 6-31G
  Basis Set: (6-31G AUX)
    Blend: CC-PVDZ-JKFIT

    Orbital Energies (a.u.)
    -----------------------

    Doubly Occupied:

       1Ap   -20.553703     2Ap    -1.242284     3Ap    -0.639853
       4Ap    -0.470331     1App   -0.466058

  @DF-RHF Final Energy:   -75.90386669780902

   => Energetics <=

    Nuclear Repulsion Energy =              7.6212218025146896
    One-Electron Energy =                -120.3057176321155595
    Two-Electron Energy =                  36.7806291317918550
    Total Energy =                        -75.9038666978090220
    Molecular point group: cs

    Geometry (in Angstrom), charge = 0, multiplicity = 1:

       Center              X                  Y                   Z               Mass
    ------------   -----------------  -----------------  -----------------  -----------------
           O          0.043162496326     0.010114120239     0.000000000000    15.994914619560
           H          0.043162496326    -1.089885879761     0.000000000000     1.007825032070
           H         -0.728182635274     0.929367451939     0.000000000000     1.007825032070

  Basis Set: 6-31G
    Blend: 6-31G
  Basis Set: (6-31G AUX)
    Blend: CC-PVDZ-JKFIT

  -Total Gradient:
     Atom            X                  Y                   Z
    ------   -----------------  -----------------  -----------------
       1        0.027181067392    -0.016233020207     0.000000000000
       2        0.034599276704    -0.106735270484     0.000000000000
       3       -0.061780344095     0.122968290692     0.000000000000

*** Psi4 exiting successfully. Buy a developer a beer!
