                               Psi4 1.2a1.dev429

  ==> Input File <==

--------------------------------------------------------------------------
# density-fitted hartree fock energies and gradients with 6-31g
molecule h2o {
0 1
O 0.0000000000 0.0000000000 0.0000000000
H 0.0000000000 0.0000000000 0.9000000000
H 0.0000000000 0.6894399988 -0.5785088487
}

set basis 6-31g

gradient('mp2')
--------------------------------------------------------------------------

    Molecular point group: c2v
  Charge       = 0
  Multiplicity = 1
  Basis Set: 6-31G
    Blend: 6-31G
  Basis Set: (6-31G AUX)
    Blend: CC-PVDZ-JKFIT

    Orbital Energies (a.u.)
    -----------------------

    Doubly Occupied:

       1A1   -20.529929     2A1    -1.359721     1B2    -0.784940
       3A1    -0.522536     1B1    -0.493384

  @DF-RHF Final Energy:   -75.97400906418149

   => Energetics <=

    Nuclear Repulsion Energy =              9.7319739567902577
    One-Electron Energy =                -124.0309458732662620
    Two-Electron Energy =                  38.3249628522945187
    Total Energy =                        -75.9740090641814874
  Basis Set: (6-31G AUX)
    Blend: CC-PVDZ-RI
    Molecular point group: c2v

    Geometry (in Angstrom), charge = 0, multiplicity = 1:

       Center              X                  Y                   Z               Mass
    ------------   -----------------  -----------------  -----------------  -----------------
           O         -0.000000000000     0.000000000000    -0.042567542285    15.994914619560
           H          0.000000000000    -0.815677008323     0.337788893282     1.007825032070
           H         -0.000000000000     0.815677008323     0.337788893282     1.007825032070

  Basis Set: 6-31G
    Blend: 6-31G
  Basis Set: (6-31G AUX)
    Blend: CC-PVDZ-JKFIT
  Basis Set: (6-31G AUX)
    Blend: CC-PVDZ-JKFIT
	 Reference Energy          =     -75.9740090641814874 [Eh]
	 Singles Energy            =      -0.0000000000000000 [Eh]
	 Same-Spin Energy          =      -0.0293803674795317 [Eh]
	 Opposite-Spin Energy      =      -0.0935985028197179 [Eh]
	 Correlation Energy        =      -0.1229788702992496 [Eh]
	 Total Energy              =     -76.0969879344807367 [Eh]

	 ================> DF-SCS-MP2 Energies <==================
	-----------------------------------------------------------
	 SCS Same-Spin Scale       =       0.3333333333333333 [-]
	 SCS Opposite-Spin Scale   =       1.2000000000000000 [-]
	 SCS Same-Spin Energy      =      -0.0097934558265106 [Eh]
	 SCS Opposite-Spin Energy  =      -0.1123182033836615 [Eh]
	 SCS Correlation Energy    =      -0.1221116592101721 [Eh]
	 SCS Total Energy          =     -76.0961207233916639 [Eh]
	-----------------------------------------------------------

  -Total Gradient:
     Atom            X                  Y                   Z
    ------   -----------------  -----------------  -----------------
       1        0.000000000000    -0.000000000028     0.104220116129
       2       -0.000000000000     0.058635047437    -0.052110058070
       3        0.000000000000    -0.058635047409    -0.052110058059

*** Psi4 exiting successfully. Buy a developer a beer!
