                               Psi4 1.3.1 release

  ==> Input File <==

--------------------------------------------------------------------------
# density fitted MP2
molecule h2o {
0 1
H 0.0000000000 0.0000000000 1.2000000000
H 0.0000000000 0.9294795575 -0.1223683052
O 0.0000000000 0.0000000000 0.0000000000
}

set basis 6-31g
energy('mp2')

--------------------------------------------------------------------------

    Molecular point group: cs

    Geometry (in Angstrom), charge = 0, multiplicity = 1:

       Center              X                  Y                   Z               Mass
    ------------   -----------------  -----------------  -----------------  -----------------
         H            0.052011293451    -1.139698492713     0.000000000000     1.007825032230
         H           -0.877468264049     0.182669812487     0.000000000000     1.007825032230
         O            0.052011293451     0.060301507287     0.000000000000    15.994914619570

  Charge       = 0
  Multiplicity = 1
  Basis Set: 6-31G
    Blend: 6-31G
  Basis Set: (6-31G AUX)
    Blend: CC-PVDZ-JKFIT

    Orbital Energies [Eh]
    ---------------------

    Doubly Occupied:

       1Ap   -20.585879     2Ap    -1.325734     3Ap    -0.652743
       4Ap    -0.548780     1App   -0.502278

  @DF-RHF Final Energy:   -75.94454681760814

   => Energetics <=

    Nuclear Repulsion Energy =              8.3708836608554886
    One-Electron Energy =                -121.4000348600440731
    Two-Electron Energy =                  37.0846043815804478
    Total Energy =                        -75.9445468176081420

  Dipole Moment: [D]
     X:    -2.0661      Y:    -1.8147      Z:     0.0000     Total:     2.7499

  Basis Set: (6-31G AUX)
    Blend: CC-PVDZ-RI
	 Reference Energy          =     -75.9445468176081420 [Eh]
	 Singles Energy            =      -0.0000000000000000 [Eh]
	 Same-Spin Energy          =      -0.0321441344866402 [Eh]
	 Opposite-Spin Energy      =      -0.1071524701134608 [Eh]
	 Correlation Energy        =      -0.1392966046001010 [Eh]
	 Total Energy              =     -76.0838434222082469 [Eh]

	 ================> DF-SCS-MP2 Energies <==================
	-----------------------------------------------------------
	 SCS Same-Spin Scale       =       0.3333333333333333 [-]
	 SCS Opposite-Spin Scale   =       1.2000000000000000 [-]
	 SCS Same-Spin Energy      =      -0.0107147114955467 [Eh]
	 SCS Opposite-Spin Energy  =      -0.1285829641361530 [Eh]
	 SCS Correlation Energy    =      -0.1392976756316997 [Eh]
	 SCS Total Energy          =     -76.0838444932398374 [Eh]
	-----------------------------------------------------------

*** Psi4 exiting successfully. Buy a developer a beer!
