                               Psi4 1.2a1.dev429

  ==> Input File <==

--------------------------------------------------------------------------
# density-fitted hartree fock energies and gradients with 6-31g
molecule h2o {
0 1
O 0.0000000000 0.0000000000 0.0000000000
H 0.0000000000 0.0000000000 1.2000000000
H 0.0000000000 1.2990381057 -0.7500000000
}

set basis 6-31g

gradient('mp2')
--------------------------------------------------------------------------

    Molecular point group: cs
  Charge       = 0
  Multiplicity = 1
  Basis Set: 6-31G
    Blend: 6-31G
  Basis Set: (6-31G AUX)
    Blend: CC-PVDZ-JKFIT

    Orbital Energies (a.u.)
    -----------------------

    Doubly Occupied:

       1Ap   -20.609548     2Ap    -1.228454     3Ap    -0.566491
       1App   -0.486351     4Ap    -0.469743

  @DF-RHF Final Energy:   -75.82845413914468

   => Energetics <=

    Nuclear Repulsion Energy =              6.5759738321055936
    One-Electron Energy =                -118.0876814672645025
    Two-Electron Energy =                  35.6832534960142311
    Total Energy =                        -75.8284541391446822
  Basis Set: (6-31G AUX)
    Blend: CC-PVDZ-RI
    Molecular point group: cs

    Geometry (in Angstrom), charge = 0, multiplicity = 1:

       Center              X                  Y                   Z               Mass
    ------------   -----------------  -----------------  -----------------  -----------------
           O          0.072690842488     0.025180846486     0.000000000000    15.994914619560
           H          0.072690842488    -1.174819153514     0.000000000000     1.007825032070
           H         -1.226347263212     0.775180846486     0.000000000000     1.007825032070

  Basis Set: 6-31G
    Blend: 6-31G
  Basis Set: (6-31G AUX)
    Blend: CC-PVDZ-JKFIT
  Basis Set: (6-31G AUX)
    Blend: CC-PVDZ-JKFIT
	 Reference Energy          =     -75.8284541391446822 [Eh]
	 Singles Energy            =      -0.0000000000000000 [Eh]
	 Same-Spin Energy          =      -0.0368086590057509 [Eh]
	 Opposite-Spin Energy      =      -0.1278903390493958 [Eh]
	 Correlation Energy        =      -0.1646989980551466 [Eh]
	 Total Energy              =     -75.9931531371998261 [Eh]

	 ================> DF-SCS-MP2 Energies <==================
	-----------------------------------------------------------
	 SCS Same-Spin Scale       =       0.3333333333333333 [-]
	 SCS Opposite-Spin Scale   =       1.2000000000000000 [-]
	 SCS Same-Spin Energy      =      -0.0122695530019170 [Eh]
	 SCS Opposite-Spin Energy  =      -0.1534684068592749 [Eh]
	 SCS Correlation Energy    =      -0.1657379598611919 [Eh]
	 SCS Total Energy          =     -75.9941920990058719 [Eh]
	-----------------------------------------------------------

  -Total Gradient:
     Atom            X                  Y                   Z
    ------   -----------------  -----------------  -----------------
       1        0.050109851353     0.023397408865    -0.000000000000
       2        0.025795823973    -0.091050731166     0.000000000000
       3       -0.075905675326     0.067653322301    -0.000000000000

*** Psi4 exiting successfully. Buy a developer a beer!
