                               Psi4 1.3.1 release

  ==> Input File <==

--------------------------------------------------------------------------
# density fitted hartree fock
molecule h2o {
0 1
H 0.0000000000 0.0000000000 0.9500000000
H 0.0000000000 0.9077941655 -0.2800174157
O 0.0000000000 0.0000000000 0.0000000000
}

set basis 6-31g
energy('hf')

--------------------------------------------------------------------------

    Molecular point group: c2v

    Geometry (in Angstrom), charge = 0, multiplicity = 1:

       Center              X                  Y                   Z               Mass
    ------------   -----------------  -----------------  -----------------  -----------------
         H            0.000000000000    -0.764367890783     0.500994731010     1.007825032230
         H           -0.000000000000     0.764367890783     0.500994731010     1.007825032230
         O            0.000000000000     0.000000000000    -0.063134445283    15.994914619570

  Charge       = 0
  Multiplicity = 1
  Basis Set: 6-31G
    Blend: 6-31G
  Basis Set: (6-31G AUX)
    Blend: CC-PVDZ-JKFIT

    Orbital Energies [Eh]
    ---------------------

    Doubly Occupied:

       1A1   -20.556977     2A1    -1.357296     1B2    -0.718899
       3A1    -0.556604     1B1    -0.500492

  @DF-RHF Final Energy:   -75.98481297450078

   => Energetics <=

    Nuclear Repulsion Energy =              9.2586117648626018
    One-Electron Energy =                -123.1063075386014845
    Two-Electron Energy =                  37.8628827992380934
    Total Energy =                        -75.9848129745007839

  Dipole Moment: [D]
     X:     0.0000      Y:     0.0000      Z:     2.5816     Total:     2.5816

*** Psi4 exiting successfully. Buy a developer a beer!
