                               Psi4 1.2a1.dev429

  ==> Input File <==

--------------------------------------------------------------------------
# density-fitted hartree fock energies and gradients with 6-31g
molecule h2o {
0 1
O 0.0000000000 0.0000000000 0.0000000000
H 0.0000000000 0.0000000000 1.3000000000
H 0.0000000000 0.8999026536 -1.0724622204
}

set basis 6-31g

gradient('mp2')
--------------------------------------------------------------------------

    Molecular point group: cs
  Charge       = 0
  Multiplicity = 1
  Basis Set: 6-31G
    Blend: 6-31G
  Basis Set: (6-31G AUX)
    Blend: CC-PVDZ-JKFIT

    Orbital Energies (a.u.)
    -----------------------

    Doubly Occupied:

       1Ap   -20.582537     2Ap    -1.200628     3Ap    -0.556088
       1App   -0.465157     4Ap    -0.449125

  @DF-RHF Final Energy:   -75.80616393652866

   => Energetics <=

    Nuclear Repulsion Energy =              6.4888958053042769
    One-Electron Energy =                -118.0830490042389016
    Two-Electron Energy =                  35.7879892624059508
    Total Energy =                        -75.8061639365286624
  Basis Set: (6-31G AUX)
    Blend: CC-PVDZ-RI
    Molecular point group: cs

    Geometry (in Angstrom), charge = 0, multiplicity = 1:

       Center              X                  Y                   Z               Mass
    ------------   -----------------  -----------------  -----------------  -----------------
           O          0.050356245718     0.012732430884     0.000000000000    15.994914619560
           H          0.050356245718    -1.287267569116     0.000000000000     1.007825032070
           H         -0.849546407882     1.085194651284     0.000000000000     1.007825032070

  Basis Set: 6-31G
    Blend: 6-31G
  Basis Set: (6-31G AUX)
    Blend: CC-PVDZ-JKFIT
  Basis Set: (6-31G AUX)
    Blend: CC-PVDZ-JKFIT
	 Reference Energy          =     -75.8061639365286624 [Eh]
	 Singles Energy            =      -0.0000000000000000 [Eh]
	 Same-Spin Energy          =      -0.0364858620969857 [Eh]
	 Opposite-Spin Energy      =      -0.1241601815081084 [Eh]
	 Correlation Energy        =      -0.1606460436050941 [Eh]
	 Total Energy              =     -75.9668099801337604 [Eh]

	 ================> DF-SCS-MP2 Energies <==================
	-----------------------------------------------------------
	 SCS Same-Spin Scale       =       0.3333333333333333 [-]
	 SCS Opposite-Spin Scale   =       1.2000000000000000 [-]
	 SCS Same-Spin Energy      =      -0.0121619540323286 [Eh]
	 SCS Opposite-Spin Energy  =      -0.1489922178097301 [Eh]
	 SCS Correlation Energy    =      -0.1611541718420587 [Eh]
	 SCS Total Energy          =     -75.9673181083707192 [Eh]
	-----------------------------------------------------------

  -Total Gradient:
     Atom            X                  Y                   Z
    ------   -----------------  -----------------  -----------------
       1        0.001029029653     0.001410342883     0.000000000000
       2        0.038308679624    -0.103631944468    -0.000000000000
       3       -0.039337709277     0.102221601585    -0.000000000000

*** Psi4 exiting successfully. Buy a developer a beer!
